MODEL 1
REMARK VINA RESULT:    -8.001      0.000      0.000
REMARK INTER + INTRA:          -9.643
REMARK INTER:                  -9.404
REMARK INTRA:                  -0.239
REMARK UNBOUND:                -0.239
REMARK  Name = 1c.sdf
REMARK  3 active torsions:
REMARK  status: ('A' for Active; 'I' for Inactive)
REMARK    1  A    between atoms: N_7  and  C_12
REMARK    2  A    between atoms: C_9  and  C_10
REMARK    3  A    between atoms: C_12  and  C_13
REMARK                            x       y       z     vdW  Elec       q    Type
REMARK                         _______ _______ _______ _____ _____    ______ ____
ROOT
ATOM      1  C   UNL     1      -5.176   5.791 -21.755  0.00  0.00    -0.061 A 
ATOM      2  C   UNL     1      -5.263   4.609 -22.483  0.00  0.00    -0.060 A 
ATOM      3  C   UNL     1      -4.330   4.299 -23.484  0.00  0.00    -0.038 A 
ATOM      4  C   UNL     1      -3.312   5.227 -23.766  0.00  0.00    +0.050 A 
ATOM      5  C   UNL     1      -3.172   6.395 -22.998  0.00  0.00    +0.010 A 
ATOM      6  C   UNL     1      -4.120   6.675 -21.989  0.00  0.00    -0.052 A 
ATOM      7  N   UNL     1      -2.322   5.265 -24.741  0.00  0.00    -0.342 N 
ATOM      8  C   UNL     1      -1.517   6.361 -24.529  0.00  0.00    +0.016 A 
ATOM      9  C   UNL     1      -2.012   7.074 -23.457  0.00  0.00    +0.039 A 
ENDROOT
BRANCH   9  10
ATOM     10  C   UNL     1      -1.437   8.299 -22.930  0.00  0.00    +0.152 C 
ATOM     11  O   UNL     1      -1.990   9.390 -22.985  0.00  0.00    -0.296 OA
ENDBRANCH   9  10
BRANCH   7  12
ATOM     12  C   UNL     1      -2.194   4.415 -25.930  0.00  0.00    +0.048 C 
BRANCH  12  13
ATOM     13  C   UNL     1      -1.390   5.077 -27.023  0.00  0.00    -0.028 A 
ATOM     14  C   UNL     1      -0.077   4.660 -27.276  0.00  0.00    -0.055 A 
ATOM     15  C   UNL     1       0.749   5.398 -28.125  0.00  0.00    -0.043 A 
ATOM     16  C   UNL     1       0.253   6.535 -28.758  0.00  0.00    +0.041 A 
ATOM     17  C   UNL     1      -1.085   6.895 -28.610  0.00  0.00    -0.043 A 
ATOM     18  C   UNL     1      -1.907   6.165 -27.746  0.00  0.00    -0.055 A 
ATOM     19 CL   UNL     1       1.313   7.531 -29.676  0.00  0.00    -0.084 Cl
ENDBRANCH  12  13
ENDBRANCH   7  12
TORSDOF 3
ENDMDL
