MODEL 1
REMARK VINA RESULT:    -6.682      0.000      0.000
REMARK INTER + INTRA:          -7.646
REMARK INTER:                  -7.464
REMARK INTRA:                  -0.182
REMARK UNBOUND:                -0.182
REMARK  Name = 17.sdf
REMARK  2 active torsions:
REMARK  status: ('A' for Active; 'I' for Inactive)
REMARK    1  A    between atoms: C_9  and  C_10
REMARK    2  A    between atoms: N_11  and  N_12
REMARK                            x       y       z     vdW  Elec       q    Type
REMARK                         _______ _______ _______ _____ _____    ______ ____
ROOT
ATOM      1  C   UNL     1     118.913  89.375   8.135  0.00  0.00    -0.061 A 
ATOM      2  C   UNL     1     119.360  89.904   6.926  0.00  0.00    -0.060 A 
ATOM      3  C   UNL     1     118.835  89.461   5.709  0.00  0.00    -0.038 A 
ATOM      4  C   UNL     1     117.853  88.466   5.752  0.00  0.00    +0.047 A 
ATOM      5  C   UNL     1     117.384  87.913   6.946  0.00  0.00    +0.008 A 
ATOM      6  C   UNL     1     117.926  88.385   8.160  0.00  0.00    -0.052 A 
ATOM      7  N   UNL     1     117.180  87.850   4.724  0.00  0.00    -0.360 N 
ATOM      8  C   UNL     1     116.312  86.923   5.224  0.00  0.00    +0.011 A 
ATOM      9  C   UNL     1     116.403  86.932   6.605  0.00  0.00    +0.020 A 
ATOM     10  H   UNL     1     117.306  88.048   3.767  0.00  0.00    +0.000 HD
ENDROOT
BRANCH   9  11
ATOM     11  C   UNL     1     115.634  86.085   7.493  0.00  0.00    +0.055 C 
ATOM     12  N   UNL     1     114.683  85.388   6.966  0.00  0.00    -0.186 NA
BRANCH  12  13
ATOM     13  N   UNL     1     113.958  84.591   7.800  0.00  0.00    -0.191 N 
ATOM     14  C   UNL     1     112.695  84.181   7.443  0.00  0.00    +0.317 C 
ATOM     15  O   UNL     1     111.996  83.460   8.143  0.00  0.00    -0.251 OA
ATOM     16  N   UNL     1     112.283  84.651   6.239  0.00  0.00    -0.312 N 
ATOM     17  H   UNL     1     114.340  84.309   8.662  0.00  0.00    +0.000 HD
ATOM     18  H   UNL     1     112.875  85.229   5.706  0.00  0.00    +0.000 HD
ATOM     19  H   UNL     1     111.391  84.413   5.897  0.00  0.00    +0.000 HD
ENDBRANCH  12  13
ENDBRANCH   9  11
TORSDOF 2
ENDMDL
