MODEL 1
REMARK VINA RESULT:    -7.858      0.000      0.000
REMARK INTER + INTRA:          -9.005
REMARK INTER:                  -8.776
REMARK INTRA:                  -0.228
REMARK UNBOUND:                -0.228
REMARK  Name = 17e.sdf
REMARK  3 active torsions:
REMARK  status: ('A' for Active; 'I' for Inactive)
REMARK    1  A    between atoms: C_9  and  C_10
REMARK    2  A    between atoms: N_11  and  N_12
REMARK    3  A    between atoms: C_16  and  C_17
REMARK                            x       y       z     vdW  Elec       q    Type
REMARK                         _______ _______ _______ _____ _____    ______ ____
ROOT
ATOM      1  C   UNL     1     118.446  89.082   8.818  0.00  0.00    -0.061 A 
ATOM      2  C   UNL     1     119.025  89.677   7.707  0.00  0.00    -0.060 A 
ATOM      3  C   UNL     1     118.667  89.280   6.416  0.00  0.00    -0.037 A 
ATOM      4  C   UNL     1     117.703  88.263   6.254  0.00  0.00    +0.057 A 
ATOM      5  C   UNL     1     117.108  87.654   7.368  0.00  0.00    +0.009 A 
ATOM      6  C   UNL     1     117.489  88.075   8.663  0.00  0.00    -0.052 A 
ATOM      7  N   UNL     1     117.167  87.682   5.093  0.00  0.00    -0.287 N 
ATOM      8  C   UNL     1     116.256  86.729   5.507  0.00  0.00    +0.022 A 
ATOM      9  C   UNL     1     116.190  86.682   6.886  0.00  0.00    +0.020 A 
ATOM     10  C   UNL     1     117.511  88.023   3.762  0.00  0.00    +0.229 C 
ATOM     11  C   UNL     1     116.830  87.293   2.642  0.00  0.00    +0.015 C 
ATOM     12  O   UNL     1     118.348  88.897   3.546  0.00  0.00    -0.273 OA
ENDROOT
BRANCH   9  13
ATOM     13  C   UNL     1     115.332  85.793   7.646  0.00  0.00    +0.055 C 
ATOM     14  N   UNL     1     114.494  85.057   6.989  0.00  0.00    -0.186 NA
BRANCH  14  15
ATOM     15  N   UNL     1     113.699  84.229   7.731  0.00  0.00    -0.191 N 
ATOM     16  C   UNL     1     112.383  84.017   7.394  0.00  0.00    +0.317 C 
ATOM     17  O   UNL     1     111.638  83.283   8.029  0.00  0.00    -0.251 OA
ATOM     18  N   UNL     1     111.975  84.692   6.290  0.00  0.00    -0.312 N 
ATOM     19  H   UNL     1     114.074  83.778   8.521  0.00  0.00    +0.000 HD
ATOM     20  H   UNL     1     112.606  85.272   5.807  0.00  0.00    +0.000 HD
ATOM     21  H   UNL     1     111.049  84.599   5.972  0.00  0.00    +0.000 HD
ENDBRANCH  14  15
ENDBRANCH   9  13
TORSDOF 2
ENDMDL
