MODEL 1
REMARK VINA RESULT:    -8.402      0.000      0.000
REMARK INTER + INTRA:         -12.231
REMARK INTER:                 -11.349
REMARK INTRA:                  -0.881
REMARK UNBOUND:                -0.881
REMARK  Name = 17h.sdf
REMARK  8 active torsions:
REMARK  status: ('A' for Active; 'I' for Inactive)
REMARK    1  A    between atoms: N_7  and  C_16
REMARK    2  A    between atoms: C_9  and  C_10
REMARK    3  A    between atoms: N_11  and  N_12
REMARK    4  A    between atoms: C_16  and  C_17
REMARK    5  A    between atoms: C_20  and  O_23
REMARK    6  A    between atoms: C_21  and  O_24
REMARK    7  A    between atoms: O_23  and  C_25
REMARK    8  A    between atoms: O_24  and  C_26
REMARK                            x       y       z     vdW  Elec       q    Type
REMARK                         _______ _______ _______ _____ _____    ______ ____
ROOT
ATOM      1  C   UNL     1     116.575  87.244   2.861  0.00  0.00    -0.061 A 
ATOM      2  C   UNL     1     117.622  88.021   3.346  0.00  0.00    -0.060 A 
ATOM      3  C   UNL     1     117.858  88.134   4.722  0.00  0.00    -0.038 A 
ATOM      4  C   UNL     1     117.007  87.443   5.600  0.00  0.00    +0.050 A 
ATOM      5  C   UNL     1     115.965  86.631   5.133  0.00  0.00    +0.009 A 
ATOM      6  C   UNL     1     115.748  86.541   3.740  0.00  0.00    -0.052 A 
ATOM      7  N   UNL     1     116.959  87.406   6.981  0.00  0.00    -0.342 N 
ATOM      8  C   UNL     1     115.945  86.576   7.387  0.00  0.00    +0.015 A 
ATOM      9  C   UNL     1     115.322  86.054   6.271  0.00  0.00    +0.020 A 
ENDROOT
BRANCH   9  10
ATOM     10  C   UNL     1     114.220  85.116   6.290  0.00  0.00    +0.055 C 
ATOM     11  N   UNL     1     113.993  84.446   7.374  0.00  0.00    -0.186 NA
BRANCH  11  12
ATOM     12  N   UNL     1     112.950  83.561   7.305  0.00  0.00    -0.191 N 
ATOM     13  C   UNL     1     111.851  83.686   8.120  0.00  0.00    +0.317 C 
ATOM     14  O   UNL     1     110.932  82.881   8.130  0.00  0.00    -0.251 OA
ATOM     15  N   UNL     1     111.868  84.791   8.906  0.00  0.00    -0.312 N 
ATOM     16  H   UNL     1     112.989  82.819   6.659  0.00  0.00    +0.000 HD
ATOM     17  H   UNL     1     112.630  85.412   8.864  0.00  0.00    +0.000 HD
ATOM     18  H   UNL     1     111.118  84.971   9.518  0.00  0.00    +0.000 HD
ENDBRANCH  11  12
ENDBRANCH   9  10
BRANCH   7  19
ATOM     19  C   UNL     1     117.695  88.280   7.891  0.00  0.00    +0.048 C 
BRANCH  19  20
ATOM     20  C   UNL     1     117.567  89.757   7.598  0.00  0.00    -0.024 A 
ATOM     21  C   UNL     1     116.324  90.399   7.564  0.00  0.00    -0.053 A 
ATOM     22  C   UNL     1     116.208  91.713   7.095  0.00  0.00    -0.016 A 
ATOM     23  C   UNL     1     117.331  92.402   6.634  0.00  0.00    +0.162 A 
ATOM     24  C   UNL     1     118.596  91.790   6.708  0.00  0.00    +0.162 A 
ATOM     25  C   UNL     1     118.703  90.478   7.190  0.00  0.00    -0.011 A 
BRANCH  23  26
ATOM     26  O   UNL     1     117.296  93.662   6.087  0.00  0.00    -0.491 OA
ATOM     27  C   UNL     1     116.356  93.903   5.049  0.00  0.00    +0.079 C 
ENDBRANCH  23  26
BRANCH  24  28
ATOM     28  O   UNL     1     119.655  92.534   6.247  0.00  0.00    -0.491 OA
ATOM     29  C   UNL     1     120.714  91.848   5.596  0.00  0.00    +0.079 C 
ENDBRANCH  24  28
ENDBRANCH  19  20
ENDBRANCH   7  19
TORSDOF 6
ENDMDL
