MODEL 1
REMARK VINA RESULT:    -9.216      0.000      0.000
REMARK INTER + INTRA:         -12.311
REMARK INTER:                 -11.910
REMARK INTRA:                  -0.401
REMARK UNBOUND:                -0.401
REMARK  Name = 17i.sdf
REMARK  6 active torsions:
REMARK  status: ('A' for Active; 'I' for Inactive)
REMARK    1  A    between atoms: N_7  and  C_16
REMARK    2  A    between atoms: C_9  and  C_10
REMARK    3  A    between atoms: N_11  and  N_12
REMARK    4  A    between atoms: C_16  and  C_17
REMARK    5  A    between atoms: C_19  and  O_23
REMARK    6  A    between atoms: O_23  and  C_24
REMARK                            x       y       z     vdW  Elec       q    Type
REMARK                         _______ _______ _______ _____ _____    ______ ____
ROOT
ATOM      1  C   UNL     1     116.552  87.174   2.922  0.00  0.00    -0.061 A 
ATOM      2  C   UNL     1     117.569  88.074   2.620  0.00  0.00    -0.060 A 
ATOM      3  C   UNL     1     118.257  88.749   3.631  0.00  0.00    -0.038 A 
ATOM      4  C   UNL     1     117.893  88.497   4.965  0.00  0.00    +0.050 A 
ATOM      5  C   UNL     1     116.905  87.561   5.296  0.00  0.00    +0.009 A 
ATOM      6  C   UNL     1     116.221  86.900   4.253  0.00  0.00    -0.052 A 
ATOM      7  N   UNL     1     118.335  89.054   6.149  0.00  0.00    -0.342 N 
ATOM      8  C   UNL     1     117.695  88.459   7.207  0.00  0.00    +0.015 A 
ATOM      9  C   UNL     1     116.827  87.501   6.722  0.00  0.00    +0.020 A 
ENDROOT
BRANCH   9  10
ATOM     10  C   UNL     1     115.998  86.631   7.527  0.00  0.00    +0.055 C 
ATOM     11  N   UNL     1     115.286  85.728   6.936  0.00  0.00    -0.186 NA
BRANCH  11  12
ATOM     12  N   UNL     1     114.504  84.964   7.765  0.00  0.00    -0.191 N 
ATOM     13  C   UNL     1     113.287  84.484   7.354  0.00  0.00    +0.317 C 
ATOM     14  O   UNL     1     112.532  83.854   8.088  0.00  0.00    -0.251 OA
ATOM     15  N   UNL     1     112.988  84.759   6.062  0.00  0.00    -0.312 N 
ATOM     16  H   UNL     1     114.824  84.757   8.673  0.00  0.00    +0.000 HD
ATOM     17  H   UNL     1     113.623  85.267   5.507  0.00  0.00    +0.000 HD
ATOM     18  H   UNL     1     112.136  84.451   5.678  0.00  0.00    +0.000 HD
ENDBRANCH  11  12
ENDBRANCH   9  10
BRANCH   7  19
ATOM     19  C   UNL     1     119.161  90.253   6.275  0.00  0.00    +0.048 C 
BRANCH  19  20
ATOM     20  C   UNL     1     118.407  91.558   6.189  0.00  0.00    -0.024 A 
ATOM     21  C   UNL     1     117.142  91.632   5.574  0.00  0.00    -0.015 A 
ATOM     22  C   UNL     1     116.549  92.868   5.298  0.00  0.00    +0.120 A 
ATOM     23  C   UNL     1     117.198  94.040   5.686  0.00  0.00    -0.020 A 
ATOM     24  C   UNL     1     118.431  93.985   6.332  0.00  0.00    -0.058 A 
ATOM     25  C   UNL     1     119.037  92.752   6.574  0.00  0.00    -0.057 A 
BRANCH  22  26
ATOM     26  O   UNL     1     115.370  93.057   4.630  0.00  0.00    -0.495 OA
ATOM     27  C   UNL     1     115.405  93.896   3.482  0.00  0.00    +0.079 C 
ENDBRANCH  22  26
ENDBRANCH  19  20
ENDBRANCH   7  19
TORSDOF 5
ENDMDL
