MODEL 1
REMARK VINA RESULT:    -8.176      0.000      0.000
REMARK INTER + INTRA:         -12.554
REMARK INTER:                 -11.521
REMARK INTRA:                  -1.033
REMARK UNBOUND:                -1.033
REMARK  Name = 17k.sdf
REMARK  10 active torsions:
REMARK  status: ('A' for Active; 'I' for Inactive)
REMARK    1  A    between atoms: N_7  and  C_16
REMARK    2  A    between atoms: C_9  and  C_10
REMARK    3  A    between atoms: N_11  and  N_12
REMARK    4  A    between atoms: C_16  and  C_17
REMARK    5  A    between atoms: C_19  and  O_23
REMARK    6  A    between atoms: C_20  and  O_27
REMARK    7  A    between atoms: C_21  and  O_25
REMARK    8  A    between atoms: O_23  and  C_24
REMARK    9  A    between atoms: O_25  and  C_26
REMARK   10  A    between atoms: O_27  and  C_28
REMARK                            x       y       z     vdW  Elec       q    Type
REMARK                         _______ _______ _______ _____ _____    ______ ____
ROOT
ATOM      1  C   UNL     1     121.333  89.551  11.487  0.00  0.00    -0.061 A 
ATOM      2  C   UNL     1     120.134  88.923  11.162  0.00  0.00    -0.060 A 
ATOM      3  C   UNL     1     119.118  89.614  10.495  0.00  0.00    -0.038 A 
ATOM      4  C   UNL     1     119.338  90.962  10.166  0.00  0.00    +0.050 A 
ATOM      5  C   UNL     1     120.552  91.602  10.443  0.00  0.00    +0.009 A 
ATOM      6  C   UNL     1     121.558  90.882  11.124  0.00  0.00    -0.052 A 
ATOM      7  N   UNL     1     118.518  91.894   9.559  0.00  0.00    -0.342 N 
ATOM      8  C   UNL     1     119.201  93.072   9.390  0.00  0.00    +0.015 A 
ATOM      9  C   UNL     1     120.472  92.929   9.914  0.00  0.00    +0.020 A 
ENDROOT
BRANCH   9  10
ATOM     10  C   UNL     1     121.507  93.940   9.909  0.00  0.00    +0.055 C 
ATOM     11  N   UNL     1     121.532  94.815  10.862  0.00  0.00    -0.186 NA
BRANCH  11  12
ATOM     12  N   UNL     1     122.530  95.747  10.773  0.00  0.00    -0.191 N 
ATOM     13  C   UNL     1     123.383  95.984  11.820  0.00  0.00    +0.317 C 
ATOM     14  O   UNL     1     124.257  96.843  11.789  0.00  0.00    -0.251 OA
ATOM     15  N   UNL     1     123.180  95.185  12.896  0.00  0.00    -0.312 N 
ATOM     16  H   UNL     1     122.638  96.259   9.939  0.00  0.00    +0.000 HD
ATOM     17  H   UNL     1     122.467  94.507  12.878  0.00  0.00    +0.000 HD
ATOM     18  H   UNL     1     123.748  95.281  13.695  0.00  0.00    +0.000 HD
ENDBRANCH  11  12
ENDBRANCH   9  10
BRANCH   7  19
ATOM     19  C   UNL     1     117.115  91.704   9.188  0.00  0.00    +0.049 C 
BRANCH  19  20
ATOM     20  C   UNL     1     116.898  90.963   7.886  0.00  0.00    -0.021 A 
ATOM     21  C   UNL     1     116.953  89.572   7.770  0.00  0.00    -0.011 A 
ATOM     22  C   UNL     1     116.844  88.924   6.527  0.00  0.00    +0.165 A 
ATOM     23  C   UNL     1     116.619  89.682   5.353  0.00  0.00    +0.204 A 
ATOM     24  C   UNL     1     116.495  91.084   5.470  0.00  0.00    +0.165 A 
ATOM     25  C   UNL     1     116.641  91.700   6.726  0.00  0.00    -0.011 A 
BRANCH  22  26
ATOM     26  O   UNL     1     116.950  87.559   6.418  0.00  0.00    -0.491 OA
ATOM     27  C   UNL     1     116.332  86.745   7.407  0.00  0.00    +0.079 C 
ENDBRANCH  22  26
BRANCH  24  28
ATOM     28  O   UNL     1     116.243  92.013   4.489  0.00  0.00    -0.491 OA
ATOM     29  C   UNL     1     115.808  93.316   4.851  0.00  0.00    +0.079 C 
ENDBRANCH  24  28
BRANCH  23  30
ATOM     30  O   UNL     1     116.500  89.176   4.086  0.00  0.00    -0.488 OA
ATOM     31  C   UNL     1     117.644  88.932   3.285  0.00  0.00    +0.079 C 
ENDBRANCH  23  30
ENDBRANCH  19  20
ENDBRANCH   7  19
TORSDOF 7
ENDMDL
