MODEL 1
REMARK VINA RESULT:    -9.136      0.000      0.000
REMARK INTER + INTRA:         -12.726
REMARK INTER:                 -11.806
REMARK INTRA:                  -0.920
REMARK UNBOUND:                -0.920
REMARK  Name = 18a.sdf
REMARK  5 active torsions:
REMARK  status: ('A' for Active; 'I' for Inactive)
REMARK    1  A    between atoms: N_7  and  C_12
REMARK    2  A    between atoms: C_9  and  C_10
REMARK    3  A    between atoms: N_11  and  N_19
REMARK    4  A    between atoms: C_12  and  C_13
REMARK    5  A    between atoms: C_20  and  C_22
REMARK                            x       y       z     vdW  Elec       q    Type
REMARK                         _______ _______ _______ _____ _____    ______ ____
ROOT
ATOM      1  C   UNL     1     116.240  93.499   5.163  0.00  0.00    -0.061 A 
ATOM      2  C   UNL     1     115.632  92.384   4.598  0.00  0.00    -0.060 A 
ATOM      3  C   UNL     1     116.232  91.122   4.671  0.00  0.00    -0.038 A 
ATOM      4  C   UNL     1     117.467  91.004   5.330  0.00  0.00    +0.050 A 
ATOM      5  C   UNL     1     118.068  92.104   5.956  0.00  0.00    +0.009 A 
ATOM      6  C   UNL     1     117.447  93.368   5.856  0.00  0.00    -0.052 A 
ATOM      7  N   UNL     1     118.321  89.927   5.505  0.00  0.00    -0.342 N 
ATOM      8  C   UNL     1     119.383  90.302   6.291  0.00  0.00    +0.015 A 
ATOM      9  C   UNL     1     119.254  91.640   6.604  0.00  0.00    +0.020 A 
ENDROOT
BRANCH   9  10
ATOM     10  C   UNL     1     120.159  92.417   7.427  0.00  0.00    +0.055 C 
ATOM     11  N   UNL     1     119.757  92.872   8.572  0.00  0.00    -0.187 NA
BRANCH  11  12
ATOM     12  N   UNL     1     120.669  93.605   9.279  0.00  0.00    -0.203 N 
ATOM     13  C   UNL     1     121.120  93.135  10.504  0.00  0.00    +0.263 C 
ATOM     14  O   UNL     1     120.775  92.079  11.023  0.00  0.00    -0.268 OA
ATOM     15  H   UNL     1     121.003  94.460   8.921  0.00  0.00    +0.000 HD
BRANCH  13  16
ATOM     16  C   UNL     1     122.131  93.988  11.198  0.00  0.00    +0.038 A 
ATOM     17  C   UNL     1     122.919  94.926  10.515  0.00  0.00    -0.050 A 
ATOM     18  C   UNL     1     123.846  95.703  11.225  0.00  0.00    -0.061 A 
ATOM     19  C   UNL     1     123.981  95.552  12.605  0.00  0.00    -0.062 A 
ATOM     20  C   UNL     1     123.184  94.634  13.288  0.00  0.00    -0.061 A 
ATOM     21  C   UNL     1     122.259  93.857  12.585  0.00  0.00    -0.050 A 
ENDBRANCH  13  16
ENDBRANCH  11  12
ENDBRANCH   9  10
BRANCH   7  22
ATOM     22  C   UNL     1     118.216  88.615   4.862  0.00  0.00    +0.048 C 
BRANCH  22  23
ATOM     23  C   UNL     1     117.133  87.769   5.486  0.00  0.00    -0.028 A 
ATOM     24  C   UNL     1     117.110  87.552   6.871  0.00  0.00    -0.056 A 
ATOM     25  C   UNL     1     116.211  86.644   7.431  0.00  0.00    -0.047 A 
ATOM     26  C   UNL     1     115.314  85.965   6.612  0.00  0.00    +0.018 A 
ATOM     27  C   UNL     1     115.266  86.230   5.246  0.00  0.00    -0.047 A 
ATOM     28  C   UNL     1     116.172  87.133   4.684  0.00  0.00    -0.056 A 
ATOM     29 BR   UNL     1     114.194  84.633   7.351  0.00  0.00    -0.050 Br
ENDBRANCH  22  23
ENDBRANCH   7  22
TORSDOF 5
ENDMDL
