MODEL 1
REMARK VINA RESULT:    -5.394      0.000      0.000
REMARK INTER + INTRA:          -5.762
REMARK INTER:                  -5.709
REMARK INTRA:                  -0.053
REMARK UNBOUND:                -0.053
REMARK  Name = 1.sdf
REMARK  1 active torsions:
REMARK  status: ('A' for Active; 'I' for Inactive)
REMARK    1  A    between atoms: C_9  and  C_10
REMARK                            x       y       z     vdW  Elec       q    Type
REMARK                         _______ _______ _______ _____ _____    ______ ____
ROOT
ATOM      1  C   UNL     1     115.449  86.572   4.830  0.00  0.00    -0.061 A 
ATOM      2  C   UNL     1     115.346  86.322   3.465  0.00  0.00    -0.060 A 
ATOM      3  C   UNL     1     116.235  86.903   2.557  0.00  0.00    -0.038 A 
ATOM      4  C   UNL     1     117.228  87.748   3.068  0.00  0.00    +0.047 A 
ATOM      5  C   UNL     1     117.359  88.021   4.432  0.00  0.00    +0.010 A 
ATOM      6  C   UNL     1     116.451  87.415   5.326  0.00  0.00    -0.052 A 
ATOM      7  N   UNL     1     118.217  88.446   2.417  0.00  0.00    -0.360 N 
ATOM      8  C   UNL     1     118.963  89.158   3.315  0.00  0.00    +0.013 A 
ATOM      9  C   UNL     1     118.464  88.919   4.582  0.00  0.00    +0.039 A 
ATOM     10  H   UNL     1     118.367  88.435   1.443  0.00  0.00    +0.000 HD
ENDROOT
BRANCH   9  11
ATOM     11  C   UNL     1     118.986  89.493   5.807  0.00  0.00    +0.152 C 
ATOM     12  O   UNL     1     118.325  90.182   6.578  0.00  0.00    -0.296 OA
ENDBRANCH   9  11
TORSDOF 1
ENDMDL
