MODEL 1
REMARK VINA RESULT:    -7.140      0.000      0.000
REMARK INTER + INTRA:          -8.819
REMARK INTER:                  -8.392
REMARK INTRA:                  -0.427
REMARK UNBOUND:                -0.427
REMARK  Name = 1b.sdf
REMARK  3 active torsions:
REMARK  status: ('A' for Active; 'I' for Inactive)
REMARK    1  A    between atoms: N_7  and  C_12
REMARK    2  A    between atoms: C_9  and  C_10
REMARK    3  A    between atoms: C_12  and  C_13
REMARK                            x       y       z     vdW  Elec       q    Type
REMARK                         _______ _______ _______ _____ _____    ______ ____
ROOT
ATOM      1  C   UNL     1     116.020  86.844   7.892  0.00  0.00    -0.061 A 
ATOM      2  C   UNL     1     116.493  87.980   8.536  0.00  0.00    -0.060 A 
ATOM      3  C   UNL     1     117.277  88.918   7.857  0.00  0.00    -0.038 A 
ATOM      4  C   UNL     1     117.573  88.687   6.502  0.00  0.00    +0.050 A 
ATOM      5  C   UNL     1     117.070  87.568   5.824  0.00  0.00    +0.010 A 
ATOM      6  C   UNL     1     116.294  86.632   6.538  0.00  0.00    -0.052 A 
ATOM      7  N   UNL     1     118.348  89.392   5.599  0.00  0.00    -0.342 N 
ATOM      8  C   UNL     1     118.290  88.790   4.368  0.00  0.00    +0.016 A 
ATOM      9  C   UNL     1     117.508  87.657   4.466  0.00  0.00    +0.039 A 
ENDROOT
BRANCH   9  10
ATOM     10  C   UNL     1     117.218  86.746   3.378  0.00  0.00    +0.152 C 
ATOM     11  O   UNL     1     116.354  86.947   2.527  0.00  0.00    -0.296 OA
ENDBRANCH   9  10
BRANCH   7  12
ATOM     12  C   UNL     1     119.220  90.524   5.904  0.00  0.00    +0.048 C 
BRANCH  12  13
ATOM     13  C   UNL     1     118.484  91.835   5.860  0.00  0.00    -0.025 A 
ATOM     14  C   UNL     1     117.225  91.929   5.258  0.00  0.00    -0.039 A 
ATOM     15  C   UNL     1     116.603  93.166   5.201  0.00  0.00    +0.028 A 
ATOM     16  N   UNL     1     117.134  94.298   5.707  0.00  0.00    -0.263 NA
ATOM     17  C   UNL     1     118.344  94.188   6.296  0.00  0.00    +0.028 A 
ATOM     18  C   UNL     1     119.047  92.997   6.398  0.00  0.00    -0.039 A 
ENDBRANCH  12  13
ENDBRANCH   7  12
TORSDOF 3
ENDMDL
