MODEL 1
REMARK VINA RESULT:    -8.010      0.000      0.000
REMARK INTER + INTRA:          -9.266
REMARK INTER:                  -8.947
REMARK INTRA:                  -0.319
REMARK UNBOUND:                -0.319
REMARK  Name = 1d.sdf
REMARK  2 active torsions:
REMARK  status: ('A' for Active; 'I' for Inactive)
REMARK    1  A    between atoms: C_9  and  C_10
REMARK    2  A    between atoms: C_12  and  C_13
REMARK                            x       y       z     vdW  Elec       q    Type
REMARK                         _______ _______ _______ _____ _____    ______ ____
ROOT
ATOM      1  C   UNL     1     115.494  86.426   2.985  0.00  0.00    -0.061 A 
ATOM      2  C   UNL     1     114.897  86.185   4.216  0.00  0.00    -0.060 A 
ATOM      3  C   UNL     1     115.427  86.731   5.389  0.00  0.00    -0.037 A 
ATOM      4  C   UNL     1     116.581  87.532   5.300  0.00  0.00    +0.057 A 
ATOM      5  C   UNL     1     117.193  87.790   4.066  0.00  0.00    +0.011 A 
ATOM      6  C   UNL     1     116.638  87.223   2.896  0.00  0.00    -0.052 A 
ATOM      7  N   UNL     1     117.278  88.242   6.281  0.00  0.00    -0.282 N 
ATOM      8  C   UNL     1     118.347  88.868   5.665  0.00  0.00    +0.024 A 
ATOM      9  C   UNL     1     118.313  88.635   4.307  0.00  0.00    +0.040 A 
ATOM     10  C   UNL     1     116.963  88.340   7.660  0.00  0.00    +0.263 C 
ATOM     11  O   UNL     1     116.273  87.459   8.167  0.00  0.00    -0.267 OA
ENDROOT
BRANCH  10  12
ATOM     12  C   UNL     1     117.427  89.465   8.513  0.00  0.00    +0.040 A 
ATOM     13  C   UNL     1     116.742  90.687   8.494  0.00  0.00    -0.049 A 
ATOM     14  C   UNL     1     117.212  91.761   9.248  0.00  0.00    -0.061 A 
ATOM     15  C   UNL     1     118.343  91.606  10.047  0.00  0.00    -0.062 A 
ATOM     16  C   UNL     1     118.992  90.372  10.114  0.00  0.00    -0.061 A 
ATOM     17  C   UNL     1     118.533  89.295   9.352  0.00  0.00    -0.049 A 
ENDBRANCH  10  12
BRANCH   9  18
ATOM     18  C   UNL     1     119.264  89.172   3.351  0.00  0.00    +0.152 C 
ATOM     19  O   UNL     1     120.271  89.797   3.674  0.00  0.00    -0.296 OA
ENDBRANCH   9  18
TORSDOF 2
ENDMDL
