MODEL 1
REMARK VINA RESULT:    -7.305      0.000      0.000
REMARK INTER + INTRA:         -11.679
REMARK INTER:                  -9.440
REMARK INTRA:                  -2.240
REMARK UNBOUND:                -2.240
REMARK  Name = 21.sdf
REMARK  5 active torsions:
REMARK  status: ('A' for Active; 'I' for Inactive)
REMARK    1  A    between atoms: C_9  and  C_10
REMARK    2  A    between atoms: C_10  and  O_11
REMARK    3  A    between atoms: O_11  and  C_12
REMARK    4  A    between atoms: C_12  and  C_13
REMARK    5  A    between atoms: C_13  and  C_14
REMARK                            x       y       z     vdW  Elec       q    Type
REMARK                         _______ _______ _______ _____ _____    ______ ____
ROOT
ATOM      1  C   UNL     1     116.872  89.197   4.039  0.00  0.00    +0.075 C 
ENDROOT
BRANCH   1  10
ATOM      2  C   UNL     1     119.906  92.104   6.202  0.00  0.00    -0.061 A 
ATOM      3  C   UNL     1     119.286  93.241   6.712  0.00  0.00    -0.060 A 
ATOM      4  C   UNL     1     117.925  93.472   6.487  0.00  0.00    -0.038 A 
ATOM      5  C   UNL     1     117.206  92.509   5.770  0.00  0.00    +0.047 A 
ATOM      6  C   UNL     1     117.787  91.342   5.271  0.00  0.00    +0.005 A 
ATOM      7  C   UNL     1     119.173  91.160   5.467  0.00  0.00    -0.052 A 
ATOM      8  N   UNL     1     115.880  92.480   5.405  0.00  0.00    -0.360 N 
ATOM      9  C   UNL     1     115.597  91.322   4.735  0.00  0.00    +0.008 A 
ATOM     10  C   UNL     1     116.751  90.562   4.654  0.00  0.00    +0.003 A 
ATOM     11  H   UNL     1     115.228  93.190   5.598  0.00  0.00    +0.000 HD
ENDBRANCH   1  10
BRANCH   1  12
ATOM     12  O   UNL     1     116.087  88.240   4.763  0.00  0.00    -0.367 OA
BRANCH  12  13
ATOM     13  C   UNL     1     116.876  87.311   5.490  0.00  0.00    +0.111 C 
BRANCH  13  14
ATOM     14  C   UNL     1     116.597  87.357   6.991  0.00  0.00    +0.189 C 
ATOM     15  O   UNL     1     115.971  86.451   7.554  0.00  0.00    -0.290 OA
BRANCH  14  16
ATOM     16  C   UNL     1     117.171  88.459   7.820  0.00  0.00    +0.020 A 
ATOM     17  C   UNL     1     116.409  89.556   8.235  0.00  0.00    -0.050 A 
ATOM     18  C   UNL     1     117.009  90.604   8.941  0.00  0.00    -0.047 A 
ATOM     19  C   UNL     1     118.371  90.555   9.231  0.00  0.00    +0.018 A 
ATOM     20  C   UNL     1     119.138  89.457   8.847  0.00  0.00    -0.047 A 
ATOM     21  C   UNL     1     118.538  88.412   8.141  0.00  0.00    -0.050 A 
ATOM     22 BR   UNL     1     119.194  92.010  10.113  0.00  0.00    -0.050 Br
ENDBRANCH  14  16
ENDBRANCH  13  14
ENDBRANCH  12  13
ENDBRANCH   1  12
TORSDOF 5
ENDMDL
