MODEL 1
REMARK VINA RESULT:    -9.352      0.000      0.000
REMARK INTER + INTRA:         -13.591
REMARK INTER:                 -12.633
REMARK INTRA:                  -0.958
REMARK UNBOUND:                -0.958
REMARK  Name = 22a.sdf
REMARK  7 active torsions:
REMARK  status: ('A' for Active; 'I' for Inactive)
REMARK    1  A    between atoms: N_7  and  C_12
REMARK    2  A    between atoms: C_9  and  C_10
REMARK    3  A    between atoms: N_11  and  N_19
REMARK    4  A    between atoms: C_12  and  C_13
REMARK    5  A    between atoms: C_20  and  C_22
REMARK    6  A    between atoms: C_25  and  O_29
REMARK    7  A    between atoms: O_29  and  C_30
REMARK                            x       y       z     vdW  Elec       q    Type
REMARK                         _______ _______ _______ _____ _____    ______ ____
ROOT
ATOM      1  C   UNL     1     116.122  93.385   5.143  0.00  0.00    -0.061 A 
ATOM      2  C   UNL     1     115.547  92.265   4.557  0.00  0.00    -0.060 A 
ATOM      3  C   UNL     1     116.190  91.024   4.596  0.00  0.00    -0.038 A 
ATOM      4  C   UNL     1     117.430  90.932   5.251  0.00  0.00    +0.050 A 
ATOM      5  C   UNL     1     118.007  92.039   5.890  0.00  0.00    +0.009 A 
ATOM      6  C   UNL     1     117.343  93.285   5.817  0.00  0.00    -0.052 A 
ATOM      7  N   UNL     1     118.308  89.876   5.409  0.00  0.00    -0.342 N 
ATOM      8  C   UNL     1     119.369  90.267   6.189  0.00  0.00    +0.015 A 
ATOM      9  C   UNL     1     119.216  91.600   6.516  0.00  0.00    +0.020 A 
ENDROOT
BRANCH   9  10
ATOM     10  C   UNL     1     120.113  92.383   7.336  0.00  0.00    +0.055 C 
ATOM     11  N   UNL     1     119.678  92.924   8.432  0.00  0.00    -0.187 NA
BRANCH  11  12
ATOM     12  N   UNL     1     120.588  93.656   9.145  0.00  0.00    -0.203 N 
ATOM     13  C   UNL     1     121.040  93.174  10.365  0.00  0.00    +0.263 C 
ATOM     14  O   UNL     1     120.702  92.112  10.875  0.00  0.00    -0.268 OA
ATOM     15  H   UNL     1     120.920  94.516   8.797  0.00  0.00    +0.000 HD
BRANCH  13  16
ATOM     16  C   UNL     1     122.052  94.020  11.067  0.00  0.00    +0.039 A 
ATOM     17  C   UNL     1     122.166  94.059  12.460  0.00  0.00    -0.046 A 
ATOM     18  C   UNL     1     123.126  94.884  13.056  0.00  0.00    -0.019 A 
ATOM     19  C   UNL     1     123.994  95.655  12.276  0.00  0.00    +0.120 A 
ATOM     20  C   UNL     1     123.894  95.602  10.887  0.00  0.00    -0.019 A 
ATOM     21  C   UNL     1     122.929  94.785  10.285  0.00  0.00    -0.046 A 
BRANCH  19  22
ATOM     22  O   UNL     1     124.852  96.452  12.981  0.00  0.00    -0.495 OA
ATOM     23  C   UNL     1     125.464  97.516  12.261  0.00  0.00    +0.079 C 
ENDBRANCH  19  22
ENDBRANCH  13  16
ENDBRANCH  11  12
ENDBRANCH   9  10
BRANCH   7  24
ATOM     24  C   UNL     1     118.207  88.564   4.770  0.00  0.00    +0.048 C 
BRANCH  24  25
ATOM     25  C   UNL     1     117.137  87.714   5.406  0.00  0.00    -0.028 A 
ATOM     26  C   UNL     1     117.116  87.511   6.794  0.00  0.00    -0.056 A 
ATOM     27  C   UNL     1     116.200  86.629   7.369  0.00  0.00    -0.047 A 
ATOM     28  C   UNL     1     115.287  85.956   6.561  0.00  0.00    +0.018 A 
ATOM     29  C   UNL     1     115.254  86.190   5.188  0.00  0.00    -0.047 A 
ATOM     30  C   UNL     1     116.175  87.067   4.613  0.00  0.00    -0.056 A 
ATOM     31 BR   UNL     1     114.112  84.690   7.328  0.00  0.00    -0.050 Br
ENDBRANCH  24  25
ENDBRANCH   7  24
TORSDOF 6
ENDMDL
