MODEL 1
REMARK VINA RESULT:    -9.366      0.000      0.000
REMARK INTER + INTRA:         -13.266
REMARK INTER:                 -12.378
REMARK INTRA:                  -0.888
REMARK UNBOUND:                -0.888
REMARK  Name = 24a.sdf
REMARK  6 active torsions:
REMARK  status: ('A' for Active; 'I' for Inactive)
REMARK    1  A    between atoms: N_7  and  C_10
REMARK    2  A    between atoms: C_9  and  C_18
REMARK    3  A    between atoms: C_10  and  C_11
REMARK    4  A    between atoms: N_19  and  N_20
REMARK    5  A    between atoms: C_21  and  C_23
REMARK    6  A    between atoms: C_26  and  O_29
REMARK                            x       y       z     vdW  Elec       q    Type
REMARK                         _______ _______ _______ _____ _____    ______ ____
ROOT
ATOM      1  C   UNL     1     116.253  93.776   5.001  0.00  0.00    -0.061 A 
ATOM      2  C   UNL     1     115.787  92.582   4.474  0.00  0.00    -0.060 A 
ATOM      3  C   UNL     1     116.394  91.357   4.797  0.00  0.00    -0.038 A 
ATOM      4  C   UNL     1     117.527  91.368   5.645  0.00  0.00    +0.050 A 
ATOM      5  C   UNL     1     117.969  92.562   6.234  0.00  0.00    +0.009 A 
ATOM      6  C   UNL     1     117.320  93.775   5.902  0.00  0.00    -0.052 A 
ATOM      7  N   UNL     1     118.392  90.365   6.049  0.00  0.00    -0.342 N 
ATOM      8  C   UNL     1     119.292  90.887   6.953  0.00  0.00    +0.015 A 
ATOM      9  C   UNL     1     119.047  92.237   7.115  0.00  0.00    +0.020 A 
ENDROOT
BRANCH   9  10
ATOM     10  C   UNL     1     119.757  93.135   8.006  0.00  0.00    +0.055 C 
ATOM     11  N   UNL     1     120.864  92.762   8.560  0.00  0.00    -0.187 NA
BRANCH  11  12
ATOM     12  N   UNL     1     121.449  93.666   9.405  0.00  0.00    -0.203 N 
ATOM     13  C   UNL     1     122.833  93.699   9.525  0.00  0.00    +0.263 C 
ATOM     14  O   UNL     1     123.609  92.966   8.910  0.00  0.00    -0.268 OA
ATOM     15  H   UNL     1     120.891  94.290   9.924  0.00  0.00    +0.000 HD
BRANCH  13  16
ATOM     16  C   UNL     1     123.399  94.728  10.443  0.00  0.00    +0.039 A 
ATOM     17  C   UNL     1     122.625  95.378  11.414  0.00  0.00    -0.046 A 
ATOM     18  C   UNL     1     123.198  96.357  12.233  0.00  0.00    -0.019 A 
ATOM     19  C   UNL     1     124.546  96.676  12.084  0.00  0.00    +0.117 A 
ATOM     20  C   UNL     1     125.337  96.011  11.156  0.00  0.00    -0.019 A 
ATOM     21  C   UNL     1     124.764  95.036  10.336  0.00  0.00    -0.046 A 
BRANCH  19  22
ATOM     22  O   UNL     1     125.136  97.643  12.841  0.00  0.00    -0.507 OA
ATOM     23  H   UNL     1     124.702  98.462  12.976  0.00  0.00    +0.000 HD
ENDBRANCH  19  22
ENDBRANCH  13  16
ENDBRANCH  11  12
ENDBRANCH   9  10
BRANCH   7  24
ATOM     24  C   UNL     1     118.488  88.994   5.535  0.00  0.00    +0.048 C 
BRANCH  24  25
ATOM     25  C   UNL     1     117.366  88.107   6.026  0.00  0.00    -0.028 A 
ATOM     26  C   UNL     1     117.155  87.926   7.400  0.00  0.00    -0.056 A 
ATOM     27  C   UNL     1     116.274  86.945   7.858  0.00  0.00    -0.047 A 
ATOM     28  C   UNL     1     115.566  86.169   6.943  0.00  0.00    +0.018 A 
ATOM     29  C   UNL     1     115.668  86.422   5.577  0.00  0.00    -0.047 A 
ATOM     30  C   UNL     1     116.565  87.392   5.120  0.00  0.00    -0.056 A 
ATOM     31 BR   UNL     1     114.532  84.710   7.555  0.00  0.00    -0.050 Br
ENDBRANCH  24  25
ENDBRANCH   7  24
TORSDOF 6
ENDMDL
