MODEL 1
REMARK VINA RESULT:    -9.338      0.000      0.000
REMARK INTER + INTRA:         -13.195
REMARK INTER:                 -12.341
REMARK INTRA:                  -0.854
REMARK UNBOUND:                -0.854
REMARK  Name = 24c.sdf
REMARK  6 active torsions:
REMARK  status: ('A' for Active; 'I' for Inactive)
REMARK    1  A    between atoms: N_7  and  C_10
REMARK    2  A    between atoms: C_9  and  C_18
REMARK    3  A    between atoms: C_10  and  C_11
REMARK    4  A    between atoms: N_19  and  N_20
REMARK    5  A    between atoms: C_21  and  C_23
REMARK    6  A    between atoms: C_26  and  O_29
REMARK                            x       y       z     vdW  Elec       q    Type
REMARK                         _______ _______ _______ _____ _____    ______ ____
ROOT
ATOM      1  C   UNL     1     116.044  93.674   4.949  0.00  0.00    -0.061 A 
ATOM      2  C   UNL     1     115.641  92.467   4.389  0.00  0.00    -0.060 A 
ATOM      3  C   UNL     1     116.361  91.291   4.625  0.00  0.00    -0.038 A 
ATOM      4  C   UNL     1     117.498  91.356   5.449  0.00  0.00    +0.050 A 
ATOM      5  C   UNL     1     117.894  92.552   6.061  0.00  0.00    +0.009 A 
ATOM      6  C   UNL     1     117.158  93.727   5.790  0.00  0.00    -0.052 A 
ATOM      7  N   UNL     1     118.419  90.392   5.819  0.00  0.00    -0.342 N 
ATOM      8  C   UNL     1     119.323  90.927   6.700  0.00  0.00    +0.015 A 
ATOM      9  C   UNL     1     119.027  92.265   6.884  0.00  0.00    +0.020 A 
ENDROOT
BRANCH   9  10
ATOM     10  C   UNL     1     119.737  93.184   7.752  0.00  0.00    +0.055 C 
ATOM     11  N   UNL     1     120.743  92.766   8.447  0.00  0.00    -0.187 NA
BRANCH  11  12
ATOM     12  N   UNL     1     121.349  93.701   9.241  0.00  0.00    -0.203 N 
ATOM     13  C   UNL     1     122.669  93.521   9.623  0.00  0.00    +0.263 C 
ATOM     14  O   UNL     1     123.380  92.575   9.300  0.00  0.00    -0.268 OA
ATOM     15  H   UNL     1     120.850  94.496   9.541  0.00  0.00    +0.000 HD
BRANCH  13  16
ATOM     16  C   UNL     1     123.252  94.605  10.469  0.00  0.00    +0.039 A 
ATOM     17  C   UNL     1     122.498  95.296  11.433  0.00  0.00    -0.046 A 
ATOM     18  C   UNL     1     123.091  96.315  12.189  0.00  0.00    -0.019 A 
ATOM     19  C   UNL     1     124.432  96.628  11.989  0.00  0.00    +0.117 A 
ATOM     20  C   UNL     1     125.196  95.932  11.060  0.00  0.00    -0.019 A 
ATOM     21  C   UNL     1     124.607  94.918  10.303  0.00  0.00    -0.046 A 
BRANCH  19  22
ATOM     22  O   UNL     1     125.045  97.619  12.696  0.00  0.00    -0.507 OA
ATOM     23  H   UNL     1     124.536  98.193  13.235  0.00  0.00    +0.000 HD
ENDBRANCH  19  22
ENDBRANCH  13  16
ENDBRANCH  11  12
ENDBRANCH   9  10
BRANCH   7  24
ATOM     24  C   UNL     1     118.508  89.032   5.290  0.00  0.00    +0.048 C 
BRANCH  24  25
ATOM     25  C   UNL     1     117.486  88.119   5.920  0.00  0.00    -0.028 A 
ATOM     26  C   UNL     1     117.344  88.061   7.314  0.00  0.00    -0.055 A 
ATOM     27  C   UNL     1     116.473  87.141   7.901  0.00  0.00    -0.043 A 
ATOM     28  C   UNL     1     115.727  86.282   7.096  0.00  0.00    +0.041 A 
ATOM     29  C   UNL     1     115.818  86.361   5.709  0.00  0.00    -0.043 A 
ATOM     30  C   UNL     1     116.694  87.278   5.122  0.00  0.00    -0.055 A 
ATOM     31 CL   UNL     1     114.707  85.103   7.822  0.00  0.00    -0.084 Cl
ENDBRANCH  24  25
ENDBRANCH   7  24
TORSDOF 6
ENDMDL
