MODEL 1
REMARK VINA RESULT:    -9.567      0.000      0.000
REMARK INTER + INTRA:         -13.873
REMARK INTER:                 -12.922
REMARK INTRA:                  -0.951
REMARK UNBOUND:                -0.951
REMARK  Name = 25c.sdf
REMARK  7 active torsions:
REMARK  status: ('A' for Active; 'I' for Inactive)
REMARK    1  A    between atoms: N_7  and  C_10
REMARK    2  A    between atoms: C_9  and  C_18
REMARK    3  A    between atoms: C_10  and  C_11
REMARK    4  A    between atoms: N_19  and  N_20
REMARK    5  A    between atoms: C_21  and  C_23
REMARK    6  A    between atoms: C_25  and  O_29
REMARK    7  A    between atoms: C_27  and  O_30
REMARK                            x       y       z     vdW  Elec       q    Type
REMARK                         _______ _______ _______ _____ _____    ______ ____
ROOT
ATOM      1  C   UNL     1     116.175  93.510   5.109  0.00  0.00    -0.061 A 
ATOM      2  C   UNL     1     115.527  92.378   4.627  0.00  0.00    -0.060 A 
ATOM      3  C   UNL     1     116.101  91.106   4.753  0.00  0.00    -0.038 A 
ATOM      4  C   UNL     1     117.370  90.995   5.351  0.00  0.00    +0.050 A 
ATOM      5  C   UNL     1     118.010  92.120   5.901  0.00  0.00    +0.009 A 
ATOM      6  C   UNL     1     117.399  93.389   5.769  0.00  0.00    -0.052 A 
ATOM      7  N   UNL     1     118.227  89.920   5.528  0.00  0.00    -0.342 N 
ATOM      8  C   UNL     1     119.324  90.325   6.252  0.00  0.00    +0.015 A 
ATOM      9  C   UNL     1     119.214  91.676   6.525  0.00  0.00    +0.020 A 
ENDROOT
BRANCH   9  10
ATOM     10  C   UNL     1     120.154  92.470   7.290  0.00  0.00    +0.055 C 
ATOM     11  N   UNL     1     119.820  92.920   8.455  0.00  0.00    -0.187 NA
BRANCH  11  12
ATOM     12  N   UNL     1     120.761  93.671   9.116  0.00  0.00    -0.203 N 
ATOM     13  C   UNL     1     121.207  93.268  10.373  0.00  0.00    +0.263 C 
ATOM     14  O   UNL     1     120.811  92.282  10.990  0.00  0.00    -0.268 OA
ATOM     15  H   UNL     1     121.118  94.491   8.704  0.00  0.00    +0.000 HD
BRANCH  13  16
ATOM     16  C   UNL     1     122.248  94.129  11.008  0.00  0.00    +0.045 A 
ATOM     17  C   UNL     1     123.115  94.893  10.207  0.00  0.00    -0.008 A 
ATOM     18  C   UNL     1     124.048  95.734  10.818  0.00  0.00    +0.121 A 
ATOM     19  C   UNL     1     124.132  95.828  12.201  0.00  0.00    +0.021 A 
ATOM     20  C   UNL     1     123.268  95.078  12.987  0.00  0.00    +0.121 A 
ATOM     21  C   UNL     1     122.326  94.239  12.400  0.00  0.00    -0.008 A 
BRANCH  18  22
ATOM     22  O   UNL     1     124.907  96.505  10.089  0.00  0.00    -0.507 OA
ATOM     23  H   UNL     1     125.436  97.149  10.516  0.00  0.00    +0.000 HD
ENDBRANCH  18  22
BRANCH  20  24
ATOM     24  O   UNL     1     123.282  95.128  14.341  0.00  0.00    -0.507 OA
ATOM     25  H   UNL     1     123.338  94.336  14.838  0.00  0.00    +0.000 HD
ENDBRANCH  20  24
ENDBRANCH  13  16
ENDBRANCH  11  12
ENDBRANCH   9  10
BRANCH   7  26
ATOM     26  C   UNL     1     118.121  88.584   4.926  0.00  0.00    +0.048 C 
BRANCH  26  27
ATOM     27  C   UNL     1     117.033  87.753   5.562  0.00  0.00    -0.028 A 
ATOM     28  C   UNL     1     116.981  87.602   6.955  0.00  0.00    -0.055 A 
ATOM     29  C   UNL     1     116.125  86.666   7.537  0.00  0.00    -0.043 A 
ATOM     30  C   UNL     1     115.282  85.905   6.731  0.00  0.00    +0.041 A 
ATOM     31  C   UNL     1     115.234  86.127   5.358  0.00  0.00    -0.043 A 
ATOM     32  C   UNL     1     116.106  87.051   4.773  0.00  0.00    -0.055 A 
ATOM     33 CL   UNL     1     114.342  84.645   7.431  0.00  0.00    -0.084 Cl
ENDBRANCH  26  27
ENDBRANCH   7  26
TORSDOF 7
ENDMDL
