MODEL 1
REMARK VINA RESULT:    -9.589      0.000      0.000
REMARK INTER + INTRA:         -14.043
REMARK INTER:                 -12.953
REMARK INTRA:                  -1.089
REMARK UNBOUND:                -1.089
REMARK  Name = 26c.sdf
REMARK  7 active torsions:
REMARK  status: ('A' for Active; 'I' for Inactive)
REMARK    1  A    between atoms: N_7  and  C_10
REMARK    2  A    between atoms: C_9  and  C_18
REMARK    3  A    between atoms: C_10  and  C_11
REMARK    4  A    between atoms: N_19  and  N_20
REMARK    5  A    between atoms: C_21  and  C_23
REMARK    6  A    between atoms: C_26  and  O_29
REMARK    7  A    between atoms: C_28  and  O_30
REMARK                            x       y       z     vdW  Elec       q    Type
REMARK                         _______ _______ _______ _____ _____    ______ ____
ROOT
ATOM      1  C   UNL     1     115.992  93.664   4.870  0.00  0.00    -0.061 A 
ATOM      2  C   UNL     1     115.503  92.467   4.360  0.00  0.00    -0.060 A 
ATOM      3  C   UNL     1     116.171  91.259   4.590  0.00  0.00    -0.038 A 
ATOM      4  C   UNL     1     117.353  91.281   5.351  0.00  0.00    +0.050 A 
ATOM      5  C   UNL     1     117.832  92.469   5.923  0.00  0.00    +0.009 A 
ATOM      6  C   UNL     1     117.142  93.675   5.663  0.00  0.00    -0.052 A 
ATOM      7  N   UNL     1     118.253  90.284   5.682  0.00  0.00    -0.342 N 
ATOM      8  C   UNL     1     119.216  90.790   6.517  0.00  0.00    +0.015 A 
ATOM      9  C   UNL     1     118.987  92.140   6.697  0.00  0.00    +0.020 A 
ENDROOT
BRANCH   9  10
ATOM     10  C   UNL     1     119.783  93.026   7.519  0.00  0.00    +0.055 C 
ATOM     11  N   UNL     1     120.728  92.529   8.252  0.00  0.00    -0.187 NA
BRANCH  11  12
ATOM     12  N   UNL     1     121.415  93.445   8.998  0.00  0.00    -0.203 N 
ATOM     13  C   UNL     1     122.501  93.070   9.773  0.00  0.00    +0.267 C 
ATOM     14  O   UNL     1     122.933  91.924   9.865  0.00  0.00    -0.268 OA
ATOM     15  H   UNL     1     121.134  94.389   8.985  0.00  0.00    +0.000 HD
BRANCH  13  16
ATOM     16  C   UNL     1     123.165  94.177  10.540  0.00  0.00    +0.080 A 
ATOM     17  C   UNL     1     122.358  94.955  11.389  0.00  0.00    -0.043 A 
ATOM     18  C   UNL     1     122.901  96.007  12.134  0.00  0.00    -0.019 A 
ATOM     19  C   UNL     1     124.259  96.282  12.033  0.00  0.00    +0.120 A 
ATOM     20  C   UNL     1     125.081  95.523  11.209  0.00  0.00    +0.022 A 
ATOM     21  C   UNL     1     124.537  94.473  10.463  0.00  0.00    +0.132 A 
BRANCH  19  22
ATOM     22  O   UNL     1     124.837  97.302  12.729  0.00  0.00    -0.507 OA
ATOM     23  H   UNL     1     124.302  97.912  13.198  0.00  0.00    +0.000 HD
ENDBRANCH  19  22
BRANCH  21  24
ATOM     24  O   UNL     1     125.371  93.745   9.654  0.00  0.00    -0.506 OA
ATOM     25  H   UNL     1     125.956  93.116  10.028  0.00  0.00    +0.000 HD
ENDBRANCH  21  24
ENDBRANCH  13  16
ENDBRANCH  11  12
ENDBRANCH   9  10
BRANCH   7  26
ATOM     26  C   UNL     1     118.297  88.925   5.142  0.00  0.00    +0.048 C 
BRANCH  26  27
ATOM     27  C   UNL     1     117.282  88.025   5.803  0.00  0.00    -0.028 A 
ATOM     28  C   UNL     1     117.184  87.973   7.201  0.00  0.00    -0.055 A 
ATOM     29  C   UNL     1     116.354  87.037   7.819  0.00  0.00    -0.043 A 
ATOM     30  C   UNL     1     115.601  86.160   7.042  0.00  0.00    +0.041 A 
ATOM     31  C   UNL     1     115.627  86.249   5.653  0.00  0.00    -0.043 A 
ATOM     32  C   UNL     1     116.464  87.181   5.034  0.00  0.00    -0.055 A 
ATOM     33 CL   UNL     1     114.659  84.938   7.805  0.00  0.00    -0.084 Cl
ENDBRANCH  26  27
ENDBRANCH   7  26
TORSDOF 7
ENDMDL
