MODEL 1
REMARK VINA RESULT:    -6.357      0.000      0.000
REMARK INTER + INTRA:          -7.126
REMARK INTER:                  -7.100
REMARK INTRA:                  -0.026
REMARK UNBOUND:                -0.026
REMARK  Name = 2.sdf
REMARK  2 active torsions:
REMARK  status: ('A' for Active; 'I' for Inactive)
REMARK    1  A    between atoms: C_9  and  C_10
REMARK    2  A    between atoms: C_11  and  C_12
REMARK                            x       y       z     vdW  Elec       q    Type
REMARK                         _______ _______ _______ _____ _____    ______ ____
ROOT
ATOM      1  C   UNL     1     115.421  86.550   4.797  0.00  0.00    -0.061 A 
ATOM      2  C   UNL     1     115.316  86.323   3.429  0.00  0.00    -0.060 A 
ATOM      3  C   UNL     1     116.216  86.907   2.535  0.00  0.00    -0.038 A 
ATOM      4  C   UNL     1     117.222  87.727   3.063  0.00  0.00    +0.047 A 
ATOM      5  C   UNL     1     117.363  87.976   4.432  0.00  0.00    +0.007 A 
ATOM      6  C   UNL     1     116.432  87.374   5.309  0.00  0.00    -0.052 A 
ATOM      7  N   UNL     1     118.213  88.425   2.415  0.00  0.00    -0.360 N 
ATOM      8  C   UNL     1     118.970  89.125   3.317  0.00  0.00    +0.010 A 
ATOM      9  C   UNL     1     118.484  88.857   4.580  0.00  0.00    +0.000 A 
ATOM     10  H   UNL     1     118.359  88.423   1.441  0.00  0.00    +0.000 HD
ENDROOT
BRANCH   9  11
ATOM     11  C   UNL     1     119.060  89.440   5.755  0.00  0.00    -0.046 C 
ATOM     12  C   UNL     1     118.677  89.179   7.015  0.00  0.00    +0.023 C 
BRANCH  12  13
ATOM     13  C   UNL     1     119.211  89.728   8.276  0.00  0.00    +0.330 C 
ATOM     14  O   UNL     1     118.320  90.012   9.240  0.00  0.00    -0.478 OA
ATOM     15  O   UNL     1     120.410  89.907   8.423  0.00  0.00    -0.246 OA
ENDBRANCH  12  13
ENDBRANCH   9  11
TORSDOF 2
ENDMDL
