MODEL 1
REMARK VINA RESULT:    -6.029      0.000      0.000
REMARK INTER + INTRA:          -7.562
REMARK INTER:                  -7.262
REMARK INTRA:                  -0.299
REMARK UNBOUND:                -0.299
REMARK  Name = 3.sdf
REMARK  4 active torsions:
REMARK  status: ('A' for Active; 'I' for Inactive)
REMARK    1  A    between atoms: CG_9  and  CB_10
REMARK    2  A    between atoms: CB_10  and  CA_11
REMARK    3  A    between atoms: CA_11  and  C_12
REMARK    4  A    between atoms: CA_11  and  N_15
REMARK                            x       y       z     vdW  Elec       q    Type
REMARK                         _______ _______ _______ _____ _____    ______ ____
ROOT
ATOM      1  CZ3 TRP A   1     116.796  88.382   8.943  0.00  0.00    -0.061 A 
ATOM      2  CH2 TRP A   1     117.860  88.870   9.699  0.00  0.00    -0.060 A 
ATOM      3  CZ2 TRP A   1     118.936  89.517   9.087  0.00  0.00    -0.038 A 
ATOM      4  CE2 TRP A   1     118.898  89.670   7.696  0.00  0.00    +0.047 A 
ATOM      5  CD2 TRP A   1     117.836  89.220   6.911  0.00  0.00    +0.003 A 
ATOM      6  CE3 TRP A   1     116.771  88.552   7.552  0.00  0.00    -0.052 A 
ATOM      7  NE1 TRP A   1     119.807  90.252   6.849  0.00  0.00    -0.360 N 
ATOM      8  CD1 TRP A   1     119.339  90.234   5.565  0.00  0.00    +0.006 A 
ATOM      9  CG  TRP A   1     118.107  89.608   5.553  0.00  0.00    -0.020 A 
ATOM     10  HE1 TRP A   1     120.674  90.629   7.127  0.00  0.00    +0.000 HD
ENDROOT
BRANCH   9  11
ATOM     11  CB  TRP A   1     117.193  89.421   4.375  0.00  0.00    -0.000 C 
BRANCH  11  12
ATOM     12  CA  TRP A   1     117.377  88.110   3.598  0.00  0.00    +0.107 C 
BRANCH  12  13
ATOM     13  N   TRP A   1     117.656  88.370   2.160  0.00  0.00    -0.318 N 
ATOM     14  H1  TRP A   1     116.912  87.967   1.591  0.00  0.00    +0.000 HD
ATOM     15  H2  TRP A   1     118.547  87.943   1.904  0.00  0.00    +0.000 HD
ATOM     16  H3  TRP A   1     117.702  89.375   1.998  0.00  0.00    +0.000 HD
ENDBRANCH  12  13
BRANCH  12  17
ATOM     17  C   TRP A   1     116.166  87.174   3.725  0.00  0.00    +0.322 C 
ATOM     18  O   TRP A   1     115.596  86.843   2.539  0.00  0.00    -0.480 OA
ATOM     19  OXT TRP A   1     115.797  86.676   4.780  0.00  0.00    -0.249 OA
ENDBRANCH  12  17
ENDBRANCH  11  12
ENDBRANCH   9  11
TORSDOF 4
ENDMDL
