MODEL 1
REMARK VINA RESULT:    -7.996      0.000      0.000
REMARK INTER + INTRA:         -11.389
REMARK INTER:                 -10.566
REMARK INTRA:                  -0.823
REMARK UNBOUND:                -0.823
REMARK  Name = 3a.sdf
REMARK  6 active torsions:
REMARK  status: ('A' for Active; 'I' for Inactive)
REMARK    1  A    between atoms: N_7  and  C_12
REMARK    2  A    between atoms: C_9  and  C_10
REMARK    3  A    between atoms: C_10  and  CA_11
REMARK    4  A    between atoms: CA_11  and  C_20
REMARK    5  A    between atoms: CA_11  and  N_23
REMARK    6  A    between atoms: C_12  and  C_13
REMARK                            x       y       z     vdW  Elec       q    Type
REMARK                         _______ _______ _______ _____ _____    ______ ____
ROOT
ATOM      1  C   UNL     1     116.268  93.664   5.004  0.00  0.00    -0.061 A 
ATOM      2  C   UNL     1     115.723  92.548   4.380  0.00  0.00    -0.060 A 
ATOM      3  C   UNL     1     116.268  91.276   4.580  0.00  0.00    -0.038 A 
ATOM      4  C   UNL     1     117.369  91.148   5.442  0.00  0.00    +0.050 A 
ATOM      5  C   UNL     1     117.911  92.253   6.110  0.00  0.00    +0.003 A 
ATOM      6  C   UNL     1     117.357  93.529   5.869  0.00  0.00    -0.052 A 
ATOM      7  N   UNL     1     118.143  90.059   5.788  0.00  0.00    -0.342 N 
ATOM      8  C   UNL     1     119.029  90.413   6.777  0.00  0.00    +0.009 A 
ATOM      9  C   UNL     1     118.991  91.784   6.927  0.00  0.00    -0.020 A 
ENDROOT
BRANCH   9  10
ATOM     10  C   UNL     1     119.897  92.633   7.767  0.00  0.00    -0.000 C 
BRANCH  10  11
ATOM     11  CA  UNL     1     119.303  93.133   9.097  0.00  0.00    +0.107 C 
BRANCH  11  12
ATOM     12  N   UNL     1     120.412  93.506  10.016  0.00  0.00    -0.318 N 
ATOM     13  H1  UNL     1     120.445  94.521  10.114  0.00  0.00    +0.000 HD
ATOM     14  H2  UNL     1     121.296  93.173   9.633  0.00  0.00    +0.000 HD
ATOM     15  H3  UNL     1     120.255  93.081  10.930  0.00  0.00    +0.000 HD
ENDBRANCH  11  12
BRANCH  11  16
ATOM     16  C   UNL     1     118.351  92.095   9.744  0.00  0.00    +0.322 C 
ATOM     17  O   UNL     1     118.991  91.178  10.511  0.00  0.00    -0.480 OA
ATOM     18  OXT UNL     1     117.130  92.088   9.640  0.00  0.00    -0.249 OA
ENDBRANCH  11  16
ENDBRANCH  10  11
ENDBRANCH   9  10
BRANCH   7  19
ATOM     19  C   UNL     1     118.173  88.763   5.116  0.00  0.00    +0.048 C 
BRANCH  19  20
ATOM     20  C   UNL     1     117.100  87.841   5.636  0.00  0.00    -0.028 A 
ATOM     21  C   UNL     1     116.989  87.590   7.011  0.00  0.00    -0.056 A 
ATOM     22  C   UNL     1     116.086  86.642   7.489  0.00  0.00    -0.047 A 
ATOM     23  C   UNL     1     115.273  85.951   6.593  0.00  0.00    +0.018 A 
ATOM     24  C   UNL     1     115.324  86.232   5.230  0.00  0.00    -0.047 A 
ATOM     25  C   UNL     1     116.235  87.177   4.752  0.00  0.00    -0.056 A 
ATOM     26 BR   UNL     1     114.116  84.601   7.231  0.00  0.00    -0.050 Br
ENDBRANCH  19  20
ENDBRANCH   7  19
TORSDOF 6
ENDMDL
