MODEL 1
REMARK VINA RESULT:    -5.438      0.000      0.000
REMARK INTER + INTRA:          -5.941
REMARK INTER:                  -5.914
REMARK INTRA:                  -0.026
REMARK UNBOUND:                -0.026
REMARK  Name = 4.sdf
REMARK  2 active torsions:
REMARK  status: ('A' for Active; 'I' for Inactive)
REMARK    1  A    between atoms: C_9  and  C_10
REMARK    2  A    between atoms: C_10  and  O_11
REMARK                            x       y       z     vdW  Elec       q    Type
REMARK                         _______ _______ _______ _____ _____    ______ ____
ROOT
ATOM      1  C   UNL     1     118.561  89.288   7.993  0.00  0.00    -0.061 A 
ATOM      2  C   UNL     1     117.647  88.501   8.689  0.00  0.00    -0.060 A 
ATOM      3  C   UNL     1     116.776  87.645   8.010  0.00  0.00    -0.038 A 
ATOM      4  C   UNL     1     116.852  87.610   6.612  0.00  0.00    +0.047 A 
ATOM      5  C   UNL     1     117.750  88.394   5.882  0.00  0.00    +0.005 A 
ATOM      6  C   UNL     1     118.624  89.243   6.594  0.00  0.00    -0.052 A 
ATOM      7  N   UNL     1     116.127  86.872   5.707  0.00  0.00    -0.360 N 
ATOM      8  C   UNL     1     116.521  87.172   4.434  0.00  0.00    +0.008 A 
ATOM      9  C   UNL     1     117.525  88.121   4.492  0.00  0.00    +0.003 A 
ATOM     10  H   UNL     1     115.425  86.223   5.943  0.00  0.00    +0.000 HD
ENDROOT
BRANCH   9  11
ATOM     11  C   UNL     1     118.203  88.747   3.321  0.00  0.00    +0.071 C 
BRANCH  11  12
ATOM     12  O   UNL     1     117.580  88.388   2.091  0.00  0.00    -0.390 OA
ATOM     13  H   UNL     1     118.045  88.816   1.356  0.00  0.00    +0.000 HD
ENDBRANCH  11  12
ENDBRANCH   9  11
TORSDOF 2
ENDMDL
