MODEL 1
REMARK VINA RESULT:    -7.518      0.000      0.000
REMARK INTER + INTRA:          -9.657
REMARK INTER:                  -9.056
REMARK INTRA:                  -0.600
REMARK UNBOUND:                -0.600
REMARK  Name = 4a.pdb
REMARK  4 active torsions:
REMARK  status: ('A' for Active; 'I' for Inactive)
REMARK    1  A    between atoms: N_7  and  C_11
REMARK    2  A    between atoms: C_9  and  C_10
REMARK    3  A    between atoms: C_10  and  O_18
REMARK    4  A    between atoms: C_11  and  C_12
REMARK                            x       y       z     vdW  Elec       q    Type
REMARK                         _______ _______ _______ _____ _____    ______ ____
ROOT
ATOM      1  C   UNL     1     115.808  93.437   4.687  0.00  0.00    -0.061 A 
ATOM      2  C   UNL     1     115.640  92.232   4.016  0.00  0.00    -0.060 A 
ATOM      3  C   UNL     1     116.457  91.136   4.296  0.00  0.00    -0.038 A 
ATOM      4  C   UNL     1     117.464  91.282   5.267  0.00  0.00    +0.050 A 
ATOM      5  C   UNL     1     117.648  92.482   5.960  0.00  0.00    +0.005 A 
ATOM      6  C   UNL     1     116.803  93.573   5.661  0.00  0.00    -0.052 A 
ATOM      7  N   UNL     1     118.420  90.397   5.728  0.00  0.00    -0.342 N 
ATOM      8  C   UNL     1     119.177  90.998   6.704  0.00  0.00    +0.011 A 
ATOM      9  C   UNL     1     118.732  92.296   6.876  0.00  0.00    +0.003 A 
ENDROOT
BRANCH   9  10
ATOM     10  C   UNL     1     119.279  93.293   7.839  0.00  0.00    +0.071 C 
BRANCH  10  11
ATOM     11  O   UNL     1     118.553  93.285   9.065  0.00  0.00    -0.390 OA
ATOM     12  H   UNL     1     118.922  93.952   9.664  0.00  0.00    +0.000 HD
ENDBRANCH  10  11
ENDBRANCH   9  10
BRANCH   7  13
ATOM     13  C   UNL     1     118.602  89.018   5.285  0.00  0.00    +0.048 C 
BRANCH  13  14
ATOM     14  C   UNL     1     117.552  88.112   5.881  0.00  0.00    -0.028 A 
ATOM     15  C   UNL     1     115.873  86.369   5.615  0.00  0.00    -0.047 A 
ATOM     16  C   UNL     1     115.745  86.284   7.000  0.00  0.00    +0.018 A 
ATOM     17  C   UNL     1     116.487  87.123   7.830  0.00  0.00    -0.047 A 
ATOM     18  C   UNL     1     117.387  88.034   7.273  0.00  0.00    -0.056 A 
ATOM     19 BR   UNL     1     114.581  85.003   7.756  0.00  0.00    -0.050 Br
ATOM     20  C   UNL     1     116.768  87.286   5.060  0.00  0.00    -0.056 A 
ENDBRANCH  13  14
ENDBRANCH   7  13
TORSDOF 4
ENDMDL
