MODEL 1
REMARK VINA RESULT:    -7.579      0.000      0.000
REMARK INTER + INTRA:          -9.727
REMARK INTER:                  -9.130
REMARK INTRA:                  -0.597
REMARK UNBOUND:                -0.597
REMARK  Name = 4c.sdf
REMARK  4 active torsions:
REMARK  status: ('A' for Active; 'I' for Inactive)
REMARK    1  A    between atoms: N_7  and  C_11
REMARK    2  A    between atoms: C_9  and  C_10
REMARK    3  A    between atoms: C_10  and  O_19
REMARK    4  A    between atoms: C_11  and  C_12
REMARK                            x       y       z     vdW  Elec       q    Type
REMARK                         _______ _______ _______ _____ _____    ______ ____
ROOT
ATOM      1  C   UNL     1     115.828  93.611   4.511  0.00  0.00    -0.061 A 
ATOM      2  C   UNL     1     115.625  92.370   3.918  0.00  0.00    -0.060 A 
ATOM      3  C   UNL     1     116.376  91.256   4.299  0.00  0.00    -0.038 A 
ATOM      4  C   UNL     1     117.339  91.418   5.311  0.00  0.00    +0.050 A 
ATOM      5  C   UNL     1     117.534  92.646   5.950  0.00  0.00    +0.005 A 
ATOM      6  C   UNL     1     116.776  93.759   5.528  0.00  0.00    -0.052 A 
ATOM      7  N   UNL     1     118.248  90.531   5.861  0.00  0.00    -0.342 N 
ATOM      8  C   UNL     1     118.954  91.149   6.861  0.00  0.00    +0.011 A 
ATOM      9  C   UNL     1     118.539  92.464   6.953  0.00  0.00    +0.003 A 
ENDROOT
BRANCH   9  10
ATOM     10  C   UNL     1     119.043  93.501   7.896  0.00  0.00    +0.071 C 
BRANCH  10  11
ATOM     11  O   UNL     1     118.589  93.283   9.231  0.00  0.00    -0.390 OA
ATOM     12  H   UNL     1     117.620  93.255   9.243  0.00  0.00    +0.000 HD
ENDBRANCH  10  11
ENDBRANCH   9  10
BRANCH   7  13
ATOM     13  C   UNL     1     118.516  89.173   5.389  0.00  0.00    +0.048 C 
BRANCH  13  14
ATOM     14  C   UNL     1     117.481  88.194   5.887  0.00  0.00    -0.028 A 
ATOM     15  C   UNL     1     117.296  87.991   7.264  0.00  0.00    -0.055 A 
ATOM     16  C   UNL     1     116.395  87.031   7.726  0.00  0.00    -0.043 A 
ATOM     17  C   UNL     1     115.665  86.272   6.815  0.00  0.00    +0.041 A 
ATOM     18  C   UNL     1     115.809  86.485   5.446  0.00  0.00    -0.043 A 
ATOM     19  C   UNL     1     116.713  87.443   4.983  0.00  0.00    -0.055 A 
ATOM     20 CL   UNL     1     114.591  85.056   7.385  0.00  0.00    -0.084 Cl
ENDBRANCH  13  14
ENDBRANCH   7  13
TORSDOF 4
ENDMDL
