MODEL 1
REMARK VINA RESULT:    -7.685      0.000      0.000
REMARK INTER + INTRA:         -10.506
REMARK INTER:                  -9.932
REMARK INTRA:                  -0.574
REMARK UNBOUND:                -0.574
REMARK  Name = 5b.sdf
REMARK  6 active torsions:
REMARK  status: ('A' for Active; 'I' for Inactive)
REMARK    1  A    between atoms: N_7  and  C_12
REMARK    2  A    between atoms: C_9  and  C_10
REMARK    3  A    between atoms: C_11  and  C_19
REMARK    4  A    between atoms: C_12  and  C_13
REMARK    5  A    between atoms: C_19  and  O_20
REMARK    6  A    between atoms: O_20  and  C_22
REMARK                            x       y       z     vdW  Elec       q    Type
REMARK                         _______ _______ _______ _____ _____    ______ ____
ROOT
ATOM      1  C   UNL     1     117.197  87.275   2.971  0.00  0.00    -0.061 A 
ATOM      2  C   UNL     1     117.851  88.500   2.966  0.00  0.00    -0.060 A 
ATOM      3  C   UNL     1     118.016  89.231   4.147  0.00  0.00    -0.038 A 
ATOM      4  C   UNL     1     117.512  88.692   5.344  0.00  0.00    +0.050 A 
ATOM      5  C   UNL     1     116.887  87.439   5.380  0.00  0.00    +0.007 A 
ATOM      6  C   UNL     1     116.719  86.733   4.167  0.00  0.00    -0.052 A 
ATOM      7  N   UNL     1     117.484  89.192   6.634  0.00  0.00    -0.342 N 
ATOM      8  C   UNL     1     116.928  88.261   7.485  0.00  0.00    +0.013 A 
ATOM      9  C   UNL     1     116.555  87.160   6.742  0.00  0.00    +0.000 A 
ENDROOT
BRANCH   9  10
ATOM     10  C   UNL     1     115.948  85.952   7.232  0.00  0.00    -0.046 C 
ATOM     11  C   UNL     1     114.688  85.559   7.003  0.00  0.00    +0.023 C 
BRANCH  11  12
ATOM     12  C   UNL     1     114.064  84.324   7.530  0.00  0.00    +0.332 C 
ATOM     13  O   UNL     1     114.679  83.266   7.563  0.00  0.00    -0.246 OA
BRANCH  12  14
ATOM     14  O   UNL     1     112.788  84.511   7.945  0.00  0.00    -0.465 OA
ATOM     15  C   UNL     1     111.999  83.319   7.918  0.00  0.00    +0.082 C 
ENDBRANCH  12  14
ENDBRANCH  11  12
ENDBRANCH   9  10
BRANCH   7  16
ATOM     16  C   UNL     1     117.853  90.548   7.036  0.00  0.00    +0.048 C 
BRANCH  16  17
ATOM     17  C   UNL     1     117.045  91.599   6.322  0.00  0.00    -0.025 A 
ATOM     18  C   UNL     1     117.627  92.805   5.917  0.00  0.00    -0.039 A 
ATOM     19  C   UNL     1     116.829  93.763   5.310  0.00  0.00    +0.028 A 
ATOM     20  N   UNL     1     115.513  93.598   5.066  0.00  0.00    -0.263 NA
ATOM     21  C   UNL     1     114.970  92.422   5.445  0.00  0.00    +0.028 A 
ATOM     22  C   UNL     1     115.683  91.406   6.063  0.00  0.00    -0.039 A 
ENDBRANCH  16  17
ENDBRANCH   7  16
TORSDOF 5
ENDMDL
