MODEL 1
REMARK VINA RESULT:    -6.012      0.000      0.000
REMARK INTER + INTRA:          -8.118
REMARK INTER:                  -7.594
REMARK INTRA:                  -0.524
REMARK UNBOUND:                -0.524
REMARK  Name = 6.sdf
REMARK  6 active torsions:
REMARK  status: ('A' for Active; 'I' for Inactive)
REMARK    1  A    between atoms: C_9  and  C_10
REMARK    2  A    between atoms: C_10  and  C_11
REMARK    3  A    between atoms: C_11  and  C_12
REMARK    4  A    between atoms: C_11  and  N_15
REMARK    5  A    between atoms: C_12  and  O_13
REMARK    6  A    between atoms: O_13  and  C_16
REMARK                            x       y       z     vdW  Elec       q    Type
REMARK                         _______ _______ _______ _____ _____    ______ ____
ROOT
ATOM      1  C   UNL     1     115.403  86.549   4.816  0.00  0.00    -0.061 A 
ATOM      2  C   UNL     1     115.316  86.272   3.454  0.00  0.00    -0.060 A 
ATOM      3  C   UNL     1     116.194  86.868   2.546  0.00  0.00    -0.038 A 
ATOM      4  C   UNL     1     117.171  87.730   3.053  0.00  0.00    +0.047 A 
ATOM      5  C   UNL     1     117.303  88.012   4.415  0.00  0.00    +0.003 A 
ATOM      6  C   UNL     1     116.387  87.416   5.309  0.00  0.00    -0.052 A 
ATOM      7  N   UNL     1     118.151  88.434   2.397  0.00  0.00    -0.360 N 
ATOM      8  C   UNL     1     118.925  89.118   3.293  0.00  0.00    +0.006 A 
ATOM      9  C   UNL     1     118.439  88.877   4.565  0.00  0.00    -0.020 A 
ATOM     10  H   UNL     1     118.278  88.445   1.421  0.00  0.00    +0.000 HD
ENDROOT
BRANCH   9  11
ATOM     11  C   UNL     1     119.032  89.386   5.849  0.00  0.00    -0.000 C 
BRANCH  11  12
ATOM     12  C   UNL     1     118.866  90.895   6.073  0.00  0.00    +0.107 C 
BRANCH  12  13
ATOM     13  N   UNL     1     119.570  91.303   7.323  0.00  0.00    -0.318 N 
ATOM     14  H   UNL     1     119.401  90.608   8.049  0.00  0.00    +0.000 HD
ATOM     15  H   UNL     1     119.218  92.209   7.630  0.00  0.00    +0.000 HD
ATOM     16  H   UNL     1     120.571  91.370   7.142  0.00  0.00    +0.000 HD
ENDBRANCH  12  13
BRANCH  12  17
ATOM     17  C   UNL     1     117.372  91.234   6.184  0.00  0.00    +0.324 C 
ATOM     18  O   UNL     1     116.628  90.779   7.043  0.00  0.00    -0.249 OA
BRANCH  17  19
ATOM     19  O   UNL     1     117.013  92.106   5.202  0.00  0.00    -0.467 OA
ATOM     20  C   UNL     1     115.934  91.703   4.356  0.00  0.00    +0.082 C 
ENDBRANCH  17  19
ENDBRANCH  12  17
ENDBRANCH  11  12
ENDBRANCH   9  11
TORSDOF 5
ENDMDL
