MODEL 1
REMARK VINA RESULT:    -7.943      0.000      0.000
REMARK INTER + INTRA:          -9.620
REMARK INTER:                  -9.335
REMARK INTRA:                  -0.285
REMARK UNBOUND:                -0.285
REMARK  Name = 8.sdf
REMARK  3 active torsions:
REMARK  status: ('A' for Active; 'I' for Inactive)
REMARK    1  A    between atoms: C_9  and  C_10
REMARK    2  A    between atoms: N_11  and  N_12
REMARK    3  A    between atoms: C_13  and  C_15
REMARK                            x       y       z     vdW  Elec       q    Type
REMARK                         _______ _______ _______ _____ _____    ______ ____
ROOT
ATOM      1  C   UNL     1     119.150  89.067   5.419  0.00  0.00    +0.055 C 
ATOM      2  N   UNL     1     118.551  89.603   6.431  0.00  0.00    -0.187 NA
ENDROOT
BRANCH   1  11
ATOM      3  C   UNL     1     115.347  86.316   5.096  0.00  0.00    -0.061 A 
ATOM      4  C   UNL     1     114.935  86.156   3.775  0.00  0.00    -0.060 A 
ATOM      5  C   UNL     1     115.631  86.763   2.728  0.00  0.00    -0.038 A 
ATOM      6  C   UNL     1     116.748  87.540   3.055  0.00  0.00    +0.047 A 
ATOM      7  C   UNL     1     117.189  87.726   4.368  0.00  0.00    +0.008 A 
ATOM      8  C   UNL     1     116.471  87.094   5.406  0.00  0.00    -0.052 A 
ATOM      9  N   UNL     1     117.601  88.244   2.236  0.00  0.00    -0.360 N 
ATOM     10  C   UNL     1     118.555  88.873   2.983  0.00  0.00    +0.011 A 
ATOM     11  C   UNL     1     118.341  88.578   4.318  0.00  0.00    +0.020 A 
ATOM     12  H   UNL     1     117.532  88.287   1.255  0.00  0.00    +0.000 HD
ENDBRANCH   1  11
BRANCH   2  13
ATOM     13  N   UNL     1     119.322  90.053   7.465  0.00  0.00    -0.203 N 
ATOM     14  C   UNL     1     119.102  89.516   8.728  0.00  0.00    +0.263 C 
ATOM     15  O   UNL     1     118.269  88.649   8.985  0.00  0.00    -0.268 OA
ATOM     16  H   UNL     1     120.013  90.738   7.320  0.00  0.00    +0.000 HD
BRANCH  14  17
ATOM     17  C   UNL     1     119.961  90.022   9.835  0.00  0.00    +0.038 A 
ATOM     18  C   UNL     1     120.534  89.178  10.794  0.00  0.00    -0.049 A 
ATOM     19  C   UNL     1     121.375  89.710  11.781  0.00  0.00    -0.047 A 
ATOM     20  C   UNL     1     121.645  91.078  11.805  0.00  0.00    +0.018 A 
ATOM     21  C   UNL     1     121.086  91.926  10.852  0.00  0.00    -0.047 A 
ATOM     22  C   UNL     1     120.249  91.396   9.866  0.00  0.00    -0.049 A 
ATOM     23 BR   UNL     1     122.796  91.785  13.126  0.00  0.00    -0.050 Br
ENDBRANCH  14  17
ENDBRANCH   2  13
TORSDOF 3
ENDMDL
