MODEL 1
REMARK VINA RESULT:    -9.016      0.000      0.000
REMARK INTER + INTRA:         -12.263
REMARK INTER:                 -11.652
REMARK INTRA:                  -0.611
REMARK UNBOUND:                -0.611
REMARK  Name = 8b.sdf
REMARK  5 active torsions:
REMARK  status: ('A' for Active; 'I' for Inactive)
REMARK    1  A    between atoms: N_7  and  C_12
REMARK    2  A    between atoms: C_9  and  C_10
REMARK    3  A    between atoms: N_11  and  N_19
REMARK    4  A    between atoms: C_12  and  C_13
REMARK    5  A    between atoms: C_20  and  C_22
REMARK                            x       y       z     vdW  Elec       q    Type
REMARK                         _______ _______ _______ _____ _____    ______ ____
ROOT
ATOM      1  C   UNL     1     122.261  93.959  15.526  0.00  0.00    -0.061 A 
ATOM      2  C   UNL     1     123.396  94.540  16.080  0.00  0.00    -0.060 A 
ATOM      3  C   UNL     1     124.310  95.240  15.284  0.00  0.00    -0.038 A 
ATOM      4  C   UNL     1     124.055  95.342  13.905  0.00  0.00    +0.050 A 
ATOM      5  C   UNL     1     122.888  94.811  13.337  0.00  0.00    +0.009 A 
ATOM      6  C   UNL     1     121.991  94.101  14.164  0.00  0.00    -0.052 A 
ATOM      7  N   UNL     1     124.787  95.898  12.870  0.00  0.00    -0.342 N 
ATOM      8  C   UNL     1     124.077  95.806  11.699  0.00  0.00    +0.015 A 
ATOM      9  C   UNL     1     122.885  95.156  11.950  0.00  0.00    +0.020 A 
ENDROOT
BRANCH   9  10
ATOM     10  C   UNL     1     121.844  94.883  10.980  0.00  0.00    +0.055 C 
ATOM     11  N   UNL     1     121.909  93.815  10.252  0.00  0.00    -0.187 NA
BRANCH  11  12
ATOM     12  N   UNL     1     120.897  93.641   9.353  0.00  0.00    -0.203 N 
ATOM     13  C   UNL     1     119.931  92.667   9.590  0.00  0.00    +0.263 C 
ATOM     14  O   UNL     1     119.892  91.934  10.569  0.00  0.00    -0.268 OA
ATOM     15  H   UNL     1     120.850  94.200   8.544  0.00  0.00    +0.000 HD
BRANCH  13  16
ATOM     16  C   UNL     1     118.851  92.569   8.565  0.00  0.00    +0.038 A 
ATOM     17  C   UNL     1     117.713  91.771   8.744  0.00  0.00    -0.049 A 
ATOM     18  C   UNL     1     116.738  91.705   7.742  0.00  0.00    -0.047 A 
ATOM     19  C   UNL     1     116.896  92.442   6.568  0.00  0.00    +0.018 A 
ATOM     20  C   UNL     1     118.008  93.260   6.392  0.00  0.00    -0.047 A 
ATOM     21  C   UNL     1     118.983  93.327   7.392  0.00  0.00    -0.049 A 
ATOM     22 BR   UNL     1     115.585  92.334   5.210  0.00  0.00    -0.050 Br
ENDBRANCH  13  16
ENDBRANCH  11  12
ENDBRANCH   9  10
BRANCH   7  23
ATOM     23  C   UNL     1     126.161  96.393  12.939  0.00  0.00    +0.048 C 
BRANCH  23  24
ATOM     24  C   UNL     1     126.521  97.237  11.745  0.00  0.00    -0.025 A 
ATOM     25  C   UNL     1     127.184  96.680  10.648  0.00  0.00    -0.039 A 
ATOM     26  C   UNL     1     127.564  97.512   9.605  0.00  0.00    +0.028 A 
ATOM     27  N   UNL     1     127.313  98.835   9.571  0.00  0.00    -0.263 NA
ATOM     28  C   UNL     1     126.648  99.353  10.626  0.00  0.00    +0.028 A 
ATOM     29  C   UNL     1     126.234  98.607  11.717  0.00  0.00    -0.039 A 
ENDBRANCH  23  24
ENDBRANCH   7  23
TORSDOF 5
ENDMDL
