MODEL 1
REMARK VINA RESULT:    -8.280      0.000      0.000
REMARK INTER + INTRA:         -10.182
REMARK INTER:                  -9.732
REMARK INTRA:                  -0.449
REMARK UNBOUND:                -0.449
REMARK  Name = 9.sdf
REMARK  3 active torsions:
REMARK  status: ('A' for Active; 'I' for Inactive)
REMARK    1  A    between atoms: C_9  and  C_10
REMARK    2  A    between atoms: C_11  and  C_12
REMARK    3  A    between atoms: C_12  and  C_13
REMARK                            x       y       z     vdW  Elec       q    Type
REMARK                         _______ _______ _______ _____ _____    ______ ____
ROOT
ATOM      1  C   UNL     1     120.311  89.306  10.775  0.00  0.00    -0.061 A 
ATOM      2  C   UNL     1     120.540  90.624  11.155  0.00  0.00    -0.060 A 
ATOM      3  C   UNL     1     119.701  91.652  10.720  0.00  0.00    -0.038 A 
ATOM      4  C   UNL     1     118.618  91.310   9.898  0.00  0.00    +0.047 A 
ATOM      5  C   UNL     1     118.344  89.996   9.509  0.00  0.00    +0.007 A 
ATOM      6  C   UNL     1     119.225  88.981   9.952  0.00  0.00    -0.052 A 
ATOM      7  N   UNL     1     117.659  92.112   9.324  0.00  0.00    -0.360 N 
ATOM      8  C   UNL     1     116.790  91.359   8.581  0.00  0.00    +0.010 A 
ATOM      9  C   UNL     1     117.164  90.038   8.696  0.00  0.00    +0.000 A 
ATOM     10  H   UNL     1     117.606  93.089   9.432  0.00  0.00    +0.000 HD
ENDROOT
BRANCH   9  11
ATOM     11  C   UNL     1     116.449  88.973   8.062  0.00  0.00    -0.049 C 
ATOM     12  C   UNL     1     117.018  87.858   7.582  0.00  0.00    -0.014 C 
BRANCH  12  13
ATOM     13  C   UNL     1     116.226  86.806   6.895  0.00  0.00    +0.186 C 
ATOM     14  O   UNL     1     115.620  85.934   7.505  0.00  0.00    -0.287 OA
BRANCH  13  15
ATOM     15  C   UNL     1     116.239  86.843   5.407  0.00  0.00    +0.022 A 
ATOM     16  C   UNL     1     117.396  87.262   4.742  0.00  0.00    -0.051 A 
ATOM     17  C   UNL     1     117.413  87.323   3.346  0.00  0.00    -0.061 A 
ATOM     18  C   UNL     1     116.285  86.954   2.613  0.00  0.00    -0.062 A 
ATOM     19  C   UNL     1     115.140  86.508   3.270  0.00  0.00    -0.061 A 
ATOM     20  C   UNL     1     115.117  86.447   4.664  0.00  0.00    -0.051 A 
ENDBRANCH  13  15
ENDBRANCH  12  13
ENDBRANCH   9  11
TORSDOF 3
ENDMDL
