MODEL 1
REMARK VINA RESULT:    -7.347      0.000      0.000
REMARK INTER + INTRA:         -10.832
REMARK INTER:                 -10.138
REMARK INTRA:                  -0.693
REMARK UNBOUND:                -0.693
REMARK  Name = native.pdb
REMARK  11 active torsions:
REMARK  status: ('A' for Active; 'I' for Inactive)
REMARK    1  A    between atoms: C_2  and  C_3
REMARK    2  A    between atoms: C_3  and  S_4
REMARK    3  A    between atoms: N_5  and  C_6
REMARK    4  A    between atoms: C_13  and  O_20
REMARK    5  A    between atoms: C_14  and  O_18
REMARK    6  A    between atoms: C_15  and  O_16
REMARK    7  A    between atoms: O_16  and  C_17
REMARK    8  A    between atoms: O_18  and  C_19
REMARK    9  A    between atoms: O_20  and  C_21
REMARK   10  A    between atoms: C_26  and  O_29
REMARK   11  A    between atoms: O_29  and  C_30
REMARK                            x       y       z     vdW  Elec       q    Type
REMARK                         _______ _______ _______ _____ _____    ______ ____
ROOT
ATOM      1  C   UNL     1     121.230  91.759  11.049  0.00  0.00    +0.049 C 
ATOM      2  C   UNL     1     122.109  91.415   9.840  0.00  0.00    -0.016 A 
ATOM      3  C   UNL     1     123.379  91.287  10.288  0.00  0.00    -0.006 A 
ATOM      4  C   UNL     1     119.835  91.220  10.979  0.00  0.00    -0.026 C 
ATOM      5  C   UNL     1     120.010  89.721  10.735  0.00  0.00    -0.025 C 
ATOM      6  C   UNL     1     119.587  89.500   9.321  0.00  0.00    -0.032 A 
ATOM      7  C   UNL     1     118.402  88.751   9.225  0.00  0.00    -0.012 A 
ATOM      8  C   UNL     1     117.637  88.721   8.078  0.00  0.00    +0.165 A 
ATOM      9  C   UNL     1     118.093  89.443   6.961  0.00  0.00    +0.204 A 
ATOM     10  C   UNL     1     119.381  90.150   7.018  0.00  0.00    +0.173 A 
ATOM     11  C   UNL     1     120.186  90.171   8.231  0.00  0.00    +0.031 A 
ATOM     12  C   UNL     1     121.620  90.828   8.494  0.00  0.00    -0.009 A 
ATOM     13  C   UNL     1     122.524  90.704   7.479  0.00  0.00    -0.050 A 
ATOM     14  C   UNL     1     123.916  91.183   7.405  0.00  0.00    -0.016 A 
ATOM     15  C   UNL     1     124.864  91.127   8.361  0.00  0.00    +0.167 A 
ATOM     16  C   UNL     1     124.454  90.548   9.641  0.00  0.00    +0.221 A 
ATOM     17  O   UNL     1     125.084  89.689  10.256  0.00  0.00    -0.284 OA
ENDROOT
BRANCH   1  20
ATOM     18  O   UNL     1     122.031  94.777  12.876  0.00  0.00    -0.275 OA
ATOM     19  C   UNL     1     121.991  93.565  12.651  0.00  0.00    +0.223 C 
ATOM     20  N   UNL     1     121.356  93.129  11.508  0.00  0.00    -0.308 N 
ATOM     21  H   UNL     1     120.944  93.822  10.943  0.00  0.00    +0.000 HD
BRANCH  19  22
ATOM     22  C   UNL     1     122.646  92.579  13.622  0.00  0.00    +0.067 C 
BRANCH  22  23
ATOM     23  S   UNL     1     124.173  93.262  14.324  0.00  0.00    -0.169 S 
ATOM     24  H   UNL     1     125.241  92.569  13.847  0.00  0.00    +0.000 HD
ENDBRANCH  22  23
ENDBRANCH  19  22
ENDBRANCH   1  20
BRANCH  10  25
ATOM     25  O   UNL     1     119.896  90.878   5.951  0.00  0.00    -0.491 OA
ATOM     26  C   UNL     1     119.593  92.273   5.838  0.00  0.00    +0.079 C 
ENDBRANCH  10  25
BRANCH   9  27
ATOM     27  O   UNL     1     117.357  89.515   5.794  0.00  0.00    -0.488 OA
ATOM     28  C   UNL     1     116.349  90.506   5.597  0.00  0.00    +0.079 C 
ENDBRANCH   9  27
BRANCH   8  29
ATOM     29  O   UNL     1     116.448  88.042   8.048  0.00  0.00    -0.491 OA
ATOM     30  C   UNL     1     116.400  86.759   7.428  0.00  0.00    +0.079 C 
ENDBRANCH   8  29
BRANCH  15  31
ATOM     31  O   UNL     1     126.136  91.658   8.195  0.00  0.00    -0.491 OA
ATOM     32  C   UNL     1     126.950  90.991   7.214  0.00  0.00    +0.079 C 
ENDBRANCH  15  31
TORSDOF 7
ENDMDL
