MODEL 1
REMARK VINA RESULT:    -8.685      0.000      0.000
REMARK INTER + INTRA:          -9.742
REMARK INTER:                  -9.700
REMARK INTRA:                  -0.041
REMARK UNBOUND:                -0.041
REMARK  Name = 0a.sdf
REMARK  2 active torsions:
REMARK  status: ('A' for Active; 'I' for Inactive)
REMARK    1  A    between atoms: N_7  and  C_10
REMARK    2  A    between atoms: C_10  and  C_11
REMARK                            x       y       z     vdW  Elec       q    Type
REMARK                         _______ _______ _______ _____ _____    ______ ____
ROOT
ATOM      1  C   UNL     1     -28.115 -26.150  11.116  0.00  0.00    -0.061 A 
ATOM      2  C   UNL     1     -27.776 -24.808  10.995  0.00  0.00    -0.060 A 
ATOM      3  C   UNL     1     -26.524 -24.343  11.423  0.00  0.00    -0.038 A 
ATOM      4  C   UNL     1     -25.617 -25.263  11.970  0.00  0.00    +0.049 A 
ATOM      5  C   UNL     1     -25.934 -26.625  12.063  0.00  0.00    -0.000 A 
ATOM      6  C   UNL     1     -27.201 -27.069  11.634  0.00  0.00    -0.053 A 
ATOM      7  N   UNL     1     -24.355 -25.110  12.527  0.00  0.00    -0.342 N 
ATOM      8  C   UNL     1     -23.847 -26.340  12.875  0.00  0.00    +0.006 A 
ATOM      9  C   UNL     1     -24.804 -27.292  12.605  0.00  0.00    -0.036 A 
ENDROOT
BRANCH   7  10
ATOM     10  C   UNL     1     -23.693 -23.848  12.855  0.00  0.00    +0.048 C 
BRANCH  10  11
ATOM     11  C   UNL     1     -22.193 -23.958  12.764  0.00  0.00    -0.028 A 
ATOM     12  C   UNL     1     -21.594 -24.576  11.657  0.00  0.00    -0.056 A 
ATOM     13  C   UNL     1     -20.218 -24.808  11.630  0.00  0.00    -0.047 A 
ATOM     14  C   UNL     1     -19.429 -24.406  12.703  0.00  0.00    +0.018 A 
ATOM     15  C   UNL     1     -19.993 -23.723  13.777  0.00  0.00    -0.047 A 
ATOM     16  C   UNL     1     -21.372 -23.495  13.806  0.00  0.00    -0.056 A 
ATOM     17 BR   UNL     1     -17.588 -24.833  12.724  0.00  0.00    -0.050 Br
ENDBRANCH  10  11
ENDBRANCH   7  10
TORSDOF 2
ENDMDL
