MODEL 1
REMARK VINA RESULT:    -9.127      0.000      0.000
REMARK INTER + INTRA:         -11.766
REMARK INTER:                 -11.261
REMARK INTRA:                  -0.505
REMARK UNBOUND:                -0.505
REMARK  Name = 10.sdf
REMARK  5 active torsions:
REMARK  status: ('A' for Active; 'I' for Inactive)
REMARK    1  A    between atoms: C_9  and  C_10
REMARK    2  A    between atoms: C_11  and  C_12
REMARK    3  A    between atoms: C_12  and  C_13
REMARK    4  A    between atoms: C_17  and  O_20
REMARK    5  A    between atoms: O_20  and  C_21
REMARK                            x       y       z     vdW  Elec       q    Type
REMARK                         _______ _______ _______ _____ _____    ______ ____
ROOT
ATOM      1  C   UNL     1     -27.276 -23.439  10.415  0.00  0.00    -0.049 C 
ATOM      2  C   UNL     1     -27.378 -23.256   9.085  0.00  0.00    -0.014 C 
ENDROOT
BRANCH   1  11
ATOM      3  C   UNL     1     -23.677 -25.588  12.575  0.00  0.00    -0.061 A 
ATOM      4  C   UNL     1     -24.022 -26.873  12.984  0.00  0.00    -0.060 A 
ATOM      5  C   UNL     1     -25.302 -27.374  12.748  0.00  0.00    -0.038 A 
ATOM      6  C   UNL     1     -26.218 -26.543  12.091  0.00  0.00    +0.047 A 
ATOM      7  C   UNL     1     -25.909 -25.249  11.661  0.00  0.00    +0.007 A 
ATOM      8  C   UNL     1     -24.605 -24.768  11.912  0.00  0.00    -0.052 A 
ATOM      9  N   UNL     1     -27.523 -26.789  11.746  0.00  0.00    -0.360 N 
ATOM     10  C   UNL     1     -28.057 -25.704  11.110  0.00  0.00    +0.010 A 
ATOM     11  C   UNL     1     -27.090 -24.722  11.032  0.00  0.00    +0.000 A 
ATOM     12  H   UNL     1     -28.005 -27.628  11.930  0.00  0.00    +0.000 HD
ENDBRANCH   1  11
BRANCH   2  13
ATOM     13  C   UNL     1     -27.525 -21.920   8.445  0.00  0.00    +0.186 C 
ATOM     14  O   UNL     1     -28.345 -21.094   8.824  0.00  0.00    -0.287 OA
BRANCH  13  15
ATOM     15  C   UNL     1     -26.646 -21.656   7.267  0.00  0.00    +0.022 A 
ATOM     16  C   UNL     1     -26.033 -20.406   7.130  0.00  0.00    -0.047 A 
ATOM     17  C   UNL     1     -25.229 -20.128   6.013  0.00  0.00    -0.019 A 
ATOM     18  C   UNL     1     -25.024 -21.101   5.034  0.00  0.00    +0.120 A 
ATOM     19  C   UNL     1     -25.613 -22.359   5.188  0.00  0.00    -0.019 A 
ATOM     20  C   UNL     1     -26.413 -22.641   6.298  0.00  0.00    -0.047 A 
BRANCH  18  21
ATOM     21  O   UNL     1     -24.284 -20.962   3.893  0.00  0.00    -0.495 OA
ATOM     22  C   UNL     1     -23.613 -19.723   3.704  0.00  0.00    +0.079 C 
ENDBRANCH  18  21
ENDBRANCH  13  15
ENDBRANCH   2  13
TORSDOF 4
ENDMDL
