MODEL 1
REMARK VINA RESULT:    -9.845      0.000      0.000
REMARK INTER + INTRA:         -13.930
REMARK INTER:                 -13.298
REMARK INTRA:                  -0.632
REMARK UNBOUND:                -0.632
REMARK  Name = 16c.sdf
REMARK  6 active torsions:
REMARK  status: ('A' for Active; 'I' for Inactive)
REMARK    1  A    between atoms: N_7  and  C_11
REMARK    2  A    between atoms: C_9  and  C_10
REMARK    3  A    between atoms: C_10  and  O_19
REMARK    4  A    between atoms: C_11  and  C_12
REMARK    5  A    between atoms: O_19  and  C_20
REMARK    6  A    between atoms: C_20  and  C_21
REMARK                            x       y       z     vdW  Elec       q    Type
REMARK                         _______ _______ _______ _____ _____    ______ ____
ROOT
ATOM      1  C   UNL     1     -24.266 -17.380  11.344  0.00  0.00    -0.061 A 
ATOM      2  C   UNL     1     -22.909 -17.173  11.106  0.00  0.00    -0.060 A 
ATOM      3  C   UNL     1     -21.937 -17.947  11.750  0.00  0.00    -0.038 A 
ATOM      4  C   UNL     1     -22.363 -18.947  12.640  0.00  0.00    +0.050 A 
ATOM      5  C   UNL     1     -23.720 -19.197  12.861  0.00  0.00    +0.005 A 
ATOM      6  C   UNL     1     -24.680 -18.397  12.207  0.00  0.00    -0.052 A 
ATOM      7  N   UNL     1     -21.659 -19.835  13.433  0.00  0.00    -0.342 N 
ATOM      8  C   UNL     1     -22.532 -20.676  14.081  0.00  0.00    +0.011 A 
ATOM      9  C   UNL     1     -23.822 -20.321  13.735  0.00  0.00    +0.003 A 
ENDROOT
BRANCH   9  10
ATOM     10  C   UNL     1     -25.083 -21.013  14.139  0.00  0.00    +0.075 C 
BRANCH  10  11
ATOM     11  O   UNL     1     -25.412 -22.116  13.287  0.00  0.00    -0.371 OA
BRANCH  11  12
ATOM     12  C   UNL     1     -24.389 -23.106  13.256  0.00  0.00    +0.073 C 
BRANCH  12  13
ATOM     13  C   UNL     1     -24.922 -24.315  12.532  0.00  0.00    -0.022 A 
ATOM     14  C   UNL     1     -26.154 -24.256  11.866  0.00  0.00    -0.055 A 
ATOM     15  C   UNL     1     -26.652 -25.376  11.198  0.00  0.00    -0.043 A 
ATOM     16  C   UNL     1     -25.924 -26.563  11.206  0.00  0.00    +0.041 A 
ATOM     17  C   UNL     1     -24.702 -26.639  11.876  0.00  0.00    -0.043 A 
ATOM     18  C   UNL     1     -24.209 -25.521  12.544  0.00  0.00    -0.055 A 
ATOM     19 CL   UNL     1     -26.536 -27.946  10.385  0.00  0.00    -0.084 Cl
ENDBRANCH  12  13
ENDBRANCH  11  12
ENDBRANCH  10  11
ENDBRANCH   9  10
BRANCH   7  20
ATOM     20  C   UNL     1     -20.213 -19.853  13.641  0.00  0.00    +0.048 C 
BRANCH  20  21
ATOM     21  C   UNL     1     -19.642 -21.242  13.488  0.00  0.00    -0.028 A 
ATOM     22  C   UNL     1     -19.951 -22.016  12.359  0.00  0.00    -0.055 A 
ATOM     23  C   UNL     1     -19.503 -23.334  12.255  0.00  0.00    -0.043 A 
ATOM     24  C   UNL     1     -18.733 -23.885  13.276  0.00  0.00    +0.041 A 
ATOM     25  C   UNL     1     -18.379 -23.118  14.383  0.00  0.00    -0.043 A 
ATOM     26  C   UNL     1     -18.829 -21.800  14.488  0.00  0.00    -0.055 A 
ATOM     27 CL   UNL     1     -18.234 -25.528  13.178  0.00  0.00    -0.084 Cl
ENDBRANCH  20  21
ENDBRANCH   7  20
TORSDOF 6
ENDMDL
