MODEL 1
REMARK VINA RESULT:    -7.378      0.000      0.000
REMARK INTER + INTRA:          -8.427
REMARK INTER:                  -8.241
REMARK INTRA:                  -0.187
REMARK UNBOUND:                -0.187
REMARK  Name = 17.sdf
REMARK  2 active torsions:
REMARK  status: ('A' for Active; 'I' for Inactive)
REMARK    1  A    between atoms: C_9  and  C_10
REMARK    2  A    between atoms: N_11  and  N_12
REMARK                            x       y       z     vdW  Elec       q    Type
REMARK                         _______ _______ _______ _____ _____    ______ ____
ROOT
ATOM      1  C   UNL     1     -26.014 -25.191  11.842  0.00  0.00    -0.061 A 
ATOM      2  C   UNL     1     -25.548 -26.493  12.009  0.00  0.00    -0.060 A 
ATOM      3  C   UNL     1     -24.285 -26.742  12.552  0.00  0.00    -0.038 A 
ATOM      4  C   UNL     1     -23.507 -25.637  12.914  0.00  0.00    +0.047 A 
ATOM      5  C   UNL     1     -23.944 -24.319  12.759  0.00  0.00    +0.008 A 
ATOM      6  C   UNL     1     -25.226 -24.097  12.215  0.00  0.00    -0.052 A 
ATOM      7  N   UNL     1     -22.246 -25.589  13.457  0.00  0.00    -0.360 N 
ATOM      8  C   UNL     1     -21.865 -24.291  13.640  0.00  0.00    +0.011 A 
ATOM      9  C   UNL     1     -22.894 -23.466  13.222  0.00  0.00    +0.020 A 
ATOM     10  H   UNL     1     -21.696 -26.376  13.680  0.00  0.00    +0.000 HD
ENDROOT
BRANCH   9  11
ATOM     11  C   UNL     1     -22.866 -22.019  13.261  0.00  0.00    +0.055 C 
ATOM     12  N   UNL     1     -21.705 -21.453  13.293  0.00  0.00    -0.186 NA
BRANCH  12  13
ATOM     13  N   UNL     1     -21.676 -20.091  13.331  0.00  0.00    -0.191 N 
ATOM     14  C   UNL     1     -20.877 -19.441  14.241  0.00  0.00    +0.317 C 
ATOM     15  O   UNL     1     -20.800 -18.221  14.321  0.00  0.00    -0.251 OA
ATOM     16  N   UNL     1     -20.177 -20.270  15.054  0.00  0.00    -0.312 N 
ATOM     17  H   UNL     1     -22.230 -19.572  12.704  0.00  0.00    +0.000 HD
ATOM     18  H   UNL     1     -20.267 -21.246  14.958  0.00  0.00    +0.000 HD
ATOM     19  H   UNL     1     -19.577 -19.897  15.740  0.00  0.00    +0.000 HD
ENDBRANCH  12  13
ENDBRANCH   9  11
TORSDOF 2
ENDMDL
