MODEL 1
REMARK VINA RESULT:    -8.555      0.000      0.000
REMARK INTER + INTRA:         -11.743
REMARK INTER:                 -11.056
REMARK INTRA:                  -0.687
REMARK UNBOUND:                -0.687
REMARK  Name = 17g.sdf
REMARK  6 active torsions:
REMARK  status: ('A' for Active; 'I' for Inactive)
REMARK    1  A    between atoms: N_7  and  C_16
REMARK    2  A    between atoms: C_9  and  C_10
REMARK    3  A    between atoms: N_11  and  N_12
REMARK    4  A    between atoms: C_16  and  C_17
REMARK    5  A    between atoms: C_20  and  O_23
REMARK    6  A    between atoms: O_23  and  C_24
REMARK                            x       y       z     vdW  Elec       q    Type
REMARK                         _______ _______ _______ _____ _____    ______ ____
ROOT
ATOM      1  C   UNL     1     -18.294 -24.629  13.445  0.00  0.00    -0.061 A 
ATOM      2  C   UNL     1     -18.043 -23.464  14.159  0.00  0.00    -0.060 A 
ATOM      3  C   UNL     1     -19.029 -22.483  14.305  0.00  0.00    -0.038 A 
ATOM      4  C   UNL     1     -20.287 -22.705  13.717  0.00  0.00    +0.050 A 
ATOM      5  C   UNL     1     -20.576 -23.893  13.034  0.00  0.00    +0.009 A 
ATOM      6  C   UNL     1     -19.555 -24.860  12.888  0.00  0.00    -0.052 A 
ATOM      7  N   UNL     1     -21.419 -21.915  13.650  0.00  0.00    -0.342 N 
ATOM      8  C   UNL     1     -22.425 -22.602  13.016  0.00  0.00    +0.015 A 
ATOM      9  C   UNL     1     -21.943 -23.835  12.622  0.00  0.00    +0.020 A 
ENDROOT
BRANCH   9  10
ATOM     10  C   UNL     1     -22.699 -24.858  11.932  0.00  0.00    +0.055 C 
ATOM     11  N   UNL     1     -23.734 -25.377  12.510  0.00  0.00    -0.186 NA
BRANCH  11  12
ATOM     12  N   UNL     1     -24.377 -26.350  11.795  0.00  0.00    -0.191 N 
ATOM     13  C   UNL     1     -25.681 -26.195  11.381  0.00  0.00    +0.317 C 
ATOM     14  O   UNL     1     -26.273 -27.026  10.709  0.00  0.00    -0.251 OA
ATOM     15  N   UNL     1     -26.253 -25.036  11.792  0.00  0.00    -0.312 N 
ATOM     16  H   UNL     1     -23.897 -27.180  11.571  0.00  0.00    +0.000 HD
ATOM     17  H   UNL     1     -25.736 -24.396  12.332  0.00  0.00    +0.000 HD
ATOM     18  H   UNL     1     -27.186 -24.835  11.550  0.00  0.00    +0.000 HD
ENDBRANCH  11  12
ENDBRANCH   9  10
BRANCH   7  19
ATOM     19  C   UNL     1     -21.533 -20.517  14.063  0.00  0.00    +0.048 C 
BRANCH  19  20
ATOM     20  C   UNL     1     -22.324 -19.701  13.073  0.00  0.00    -0.028 A 
ATOM     21  C   UNL     1     -21.718 -19.229  11.905  0.00  0.00    -0.053 A 
ATOM     22  C   UNL     1     -22.405 -18.361  11.054  0.00  0.00    -0.020 A 
ATOM     23  C   UNL     1     -23.715 -17.972  11.337  0.00  0.00    +0.120 A 
ATOM     24  C   UNL     1     -24.350 -18.488  12.463  0.00  0.00    -0.020 A 
ATOM     25  C   UNL     1     -23.657 -19.347  13.328  0.00  0.00    -0.053 A 
BRANCH  23  26
ATOM     26  O   UNL     1     -24.222 -17.038  10.478  0.00  0.00    -0.495 OA
ATOM     27  C   UNL     1     -23.386 -15.942  10.136  0.00  0.00    +0.079 C 
ENDBRANCH  23  26
ENDBRANCH  19  20
ENDBRANCH   7  19
TORSDOF 5
ENDMDL
