MODEL 1
REMARK VINA RESULT:    -8.741      0.000      0.000
REMARK INTER + INTRA:         -12.430
REMARK INTER:                 -11.807
REMARK INTRA:                  -0.623
REMARK UNBOUND:                -0.623
REMARK  Name = 17h.sdf
REMARK  8 active torsions:
REMARK  status: ('A' for Active; 'I' for Inactive)
REMARK    1  A    between atoms: N_7  and  C_16
REMARK    2  A    between atoms: C_9  and  C_10
REMARK    3  A    between atoms: N_11  and  N_12
REMARK    4  A    between atoms: C_16  and  C_17
REMARK    5  A    between atoms: C_20  and  O_23
REMARK    6  A    between atoms: C_21  and  O_24
REMARK    7  A    between atoms: O_23  and  C_25
REMARK    8  A    between atoms: O_24  and  C_26
REMARK                            x       y       z     vdW  Elec       q    Type
REMARK                         _______ _______ _______ _____ _____    ______ ____
ROOT
ATOM      1  C   UNL     1     -18.326 -24.675  13.553  0.00  0.00    -0.061 A 
ATOM      2  C   UNL     1     -17.957 -23.490  14.181  0.00  0.00    -0.060 A 
ATOM      3  C   UNL     1     -18.864 -22.432  14.314  0.00  0.00    -0.038 A 
ATOM      4  C   UNL     1     -20.158 -22.598  13.794  0.00  0.00    +0.050 A 
ATOM      5  C   UNL     1     -20.561 -23.793  13.184  0.00  0.00    +0.009 A 
ATOM      6  C   UNL     1     -19.622 -24.842  13.060  0.00  0.00    -0.052 A 
ATOM      7  N   UNL     1     -21.231 -21.729  13.728  0.00  0.00    -0.342 N 
ATOM      8  C   UNL     1     -22.296 -22.352  13.127  0.00  0.00    +0.015 A 
ATOM      9  C   UNL     1     -21.929 -23.643  12.800  0.00  0.00    +0.020 A 
ENDROOT
BRANCH   9  10
ATOM     10  C   UNL     1     -22.790 -24.624  12.174  0.00  0.00    +0.055 C 
ATOM     11  N   UNL     1     -24.051 -24.623  12.469  0.00  0.00    -0.186 NA
BRANCH  11  12
ATOM     12  N   UNL     1     -24.794 -25.596  11.856  0.00  0.00    -0.191 N 
ATOM     13  C   UNL     1     -26.108 -25.384  11.514  0.00  0.00    +0.317 C 
ATOM     14  O   UNL     1     -26.819 -26.248  11.024  0.00  0.00    -0.251 OA
ATOM     15  N   UNL     1     -26.546 -24.124  11.757  0.00  0.00    -0.312 N 
ATOM     16  H   UNL     1     -24.379 -26.466  11.657  0.00  0.00    +0.000 HD
ATOM     17  H   UNL     1     -25.937 -23.459  12.153  0.00  0.00    +0.000 HD
ATOM     18  H   UNL     1     -27.472 -23.874  11.536  0.00  0.00    +0.000 HD
ENDBRANCH  11  12
ENDBRANCH   9  10
BRANCH   7  19
ATOM     19  C   UNL     1     -21.200 -20.298  14.020  0.00  0.00    +0.048 C 
BRANCH  19  20
ATOM     20  C   UNL     1     -22.217 -19.472  13.266  0.00  0.00    -0.024 A 
ATOM     21  C   UNL     1     -23.580 -19.512  13.579  0.00  0.00    -0.053 A 
ATOM     22  C   UNL     1     -24.525 -18.902  12.746  0.00  0.00    -0.016 A 
ATOM     23  C   UNL     1     -24.125 -18.254  11.576  0.00  0.00    +0.162 A 
ATOM     24  C   UNL     1     -22.753 -18.161  11.272  0.00  0.00    +0.162 A 
ATOM     25  C   UNL     1     -21.814 -18.765  12.119  0.00  0.00    -0.011 A 
BRANCH  23  26
ATOM     26  O   UNL     1     -24.988 -17.696  10.665  0.00  0.00    -0.491 OA
ATOM     27  C   UNL     1     -26.111 -18.469  10.264  0.00  0.00    +0.079 C 
ENDBRANCH  23  26
BRANCH  24  28
ATOM     28  O   UNL     1     -22.436 -17.499  10.112  0.00  0.00    -0.491 OA
ATOM     29  C   UNL     1     -21.744 -16.263  10.222  0.00  0.00    +0.079 C 
ENDBRANCH  24  28
ENDBRANCH  19  20
ENDBRANCH   7  19
TORSDOF 6
ENDMDL
