MODEL 1
REMARK VINA RESULT:    -8.418      0.000      0.000
REMARK INTER + INTRA:         -12.928
REMARK INTER:                 -11.862
REMARK INTRA:                  -1.066
REMARK UNBOUND:                -1.066
REMARK  Name = 17k.sdf
REMARK  10 active torsions:
REMARK  status: ('A' for Active; 'I' for Inactive)
REMARK    1  A    between atoms: N_7  and  C_16
REMARK    2  A    between atoms: C_9  and  C_10
REMARK    3  A    between atoms: N_11  and  N_12
REMARK    4  A    between atoms: C_16  and  C_17
REMARK    5  A    between atoms: C_19  and  O_23
REMARK    6  A    between atoms: C_20  and  O_27
REMARK    7  A    between atoms: C_21  and  O_25
REMARK    8  A    between atoms: O_23  and  C_24
REMARK    9  A    between atoms: O_25  and  C_26
REMARK   10  A    between atoms: O_27  and  C_28
REMARK                            x       y       z     vdW  Elec       q    Type
REMARK                         _______ _______ _______ _____ _____    ______ ____
ROOT
ATOM      1  C   UNL     1     -25.074 -15.710   5.004  0.00  0.00    -0.061 A 
ATOM      2  C   UNL     1     -25.371 -15.146   6.241  0.00  0.00    -0.060 A 
ATOM      3  C   UNL     1     -25.609 -15.950   7.359  0.00  0.00    -0.038 A 
ATOM      4  C   UNL     1     -25.546 -17.344   7.200  0.00  0.00    +0.050 A 
ATOM      5  C   UNL     1     -25.206 -17.934   5.976  0.00  0.00    +0.009 A 
ATOM      6  C   UNL     1     -24.978 -17.097   4.862  0.00  0.00    -0.052 A 
ATOM      7  N   UNL     1     -25.774 -18.372   8.095  0.00  0.00    -0.342 N 
ATOM      8  C   UNL     1     -25.526 -19.578   7.490  0.00  0.00    +0.015 A 
ATOM      9  C   UNL     1     -25.158 -19.349   6.177  0.00  0.00    +0.020 A 
ENDROOT
BRANCH   9  10
ATOM     10  C   UNL     1     -24.792 -20.365   5.214  0.00  0.00    +0.055 C 
ATOM     11  N   UNL     1     -25.460 -21.473   5.187  0.00  0.00    -0.186 NA
BRANCH  11  12
ATOM     12  N   UNL     1     -25.038 -22.387   4.260  0.00  0.00    -0.191 N 
ATOM     13  C   UNL     1     -25.468 -23.689   4.293  0.00  0.00    +0.317 C 
ATOM     14  O   UNL     1     -25.075 -24.542   3.506  0.00  0.00    -0.251 OA
ATOM     15  N   UNL     1     -26.370 -23.954   5.270  0.00  0.00    -0.312 N 
ATOM     16  H   UNL     1     -24.413 -22.104   3.555  0.00  0.00    +0.000 HD
ATOM     17  H   UNL     1     -26.659 -23.238   5.880  0.00  0.00    +0.000 HD
ATOM     18  H   UNL     1     -26.736 -24.863   5.368  0.00  0.00    +0.000 HD
ENDBRANCH  11  12
ENDBRANCH   9  10
BRANCH   7  19
ATOM     19  C   UNL     1     -26.258 -18.233   9.469  0.00  0.00    +0.049 C 
BRANCH  19  20
ATOM     20  C   UNL     1     -25.171 -18.177  10.521  0.00  0.00    -0.021 A 
ATOM     21  C   UNL     1     -23.928 -17.574  10.317  0.00  0.00    -0.011 A 
ATOM     22  C   UNL     1     -22.907 -17.626  11.283  0.00  0.00    +0.165 A 
ATOM     23  C   UNL     1     -23.144 -18.259  12.526  0.00  0.00    +0.204 A 
ATOM     24  C   UNL     1     -24.421 -18.813  12.768  0.00  0.00    +0.165 A 
ATOM     25  C   UNL     1     -25.407 -18.769  11.767  0.00  0.00    -0.011 A 
BRANCH  22  26
ATOM     26  O   UNL     1     -21.671 -17.074  11.051  0.00  0.00    -0.491 OA
ATOM     27  C   UNL     1     -21.576 -15.956  10.176  0.00  0.00    +0.079 C 
ENDBRANCH  22  26
BRANCH  24  28
ATOM     28  O   UNL     1     -24.890 -19.438  13.898  0.00  0.00    -0.491 OA
ATOM     29  C   UNL     1     -24.781 -20.850  14.017  0.00  0.00    +0.079 C 
ENDBRANCH  24  28
BRANCH  23  30
ATOM     30  O   UNL     1     -22.237 -18.383  13.545  0.00  0.00    -0.488 OA
ATOM     31  C   UNL     1     -21.345 -19.484  13.601  0.00  0.00    +0.079 C 
ENDBRANCH  23  30
ENDBRANCH  19  20
ENDBRANCH   7  19
TORSDOF 7
ENDMDL
