MODEL 1
REMARK VINA RESULT:    -9.643      0.000      0.000
REMARK INTER + INTRA:         -12.544
REMARK INTER:                 -12.462
REMARK INTRA:                  -0.083
REMARK UNBOUND:                -0.083
REMARK  Name = 18c.sdf
REMARK  5 active torsions:
REMARK  status: ('A' for Active; 'I' for Inactive)
REMARK    1  A    between atoms: N_7  and  C_12
REMARK    2  A    between atoms: C_9  and  C_10
REMARK    3  A    between atoms: N_11  and  N_19
REMARK    4  A    between atoms: C_12  and  C_13
REMARK    5  A    between atoms: C_20  and  C_22
REMARK                            x       y       z     vdW  Elec       q    Type
REMARK                         _______ _______ _______ _____ _____    ______ ____
ROOT
ATOM      1  C   UNL     1     -18.267 -21.123  14.383  0.00  0.00    -0.061 A 
ATOM      2  C   UNL     1     -18.316 -22.510  14.460  0.00  0.00    -0.060 A 
ATOM      3  C   UNL     1     -19.472 -23.211  14.102  0.00  0.00    -0.038 A 
ATOM      4  C   UNL     1     -20.587 -22.480  13.656  0.00  0.00    +0.050 A 
ATOM      5  C   UNL     1     -20.543 -21.086  13.522  0.00  0.00    +0.009 A 
ATOM      6  C   UNL     1     -19.367 -20.403  13.907  0.00  0.00    -0.052 A 
ATOM      7  N   UNL     1     -21.862 -22.877  13.293  0.00  0.00    -0.342 N 
ATOM      8  C   UNL     1     -22.580 -21.791  12.858  0.00  0.00    +0.015 A 
ATOM      9  C   UNL     1     -21.795 -20.661  12.979  0.00  0.00    +0.020 A 
ENDROOT
BRANCH   9  10
ATOM     10  C   UNL     1     -22.181 -19.313  12.618  0.00  0.00    +0.055 C 
ATOM     11  N   UNL     1     -22.047 -18.912  11.397  0.00  0.00    -0.187 NA
BRANCH  11  12
ATOM     12  N   UNL     1     -22.421 -17.619  11.146  0.00  0.00    -0.203 N 
ATOM     13  C   UNL     1     -23.185 -17.332  10.024  0.00  0.00    +0.263 C 
ATOM     14  O   UNL     1     -23.594 -18.165   9.216  0.00  0.00    -0.268 OA
ATOM     15  H   UNL     1     -22.148 -16.897  11.758  0.00  0.00    +0.000 HD
BRANCH  13  16
ATOM     16  C   UNL     1     -23.549 -15.899   9.833  0.00  0.00    +0.038 A 
ATOM     17  C   UNL     1     -23.214 -14.907  10.765  0.00  0.00    -0.050 A 
ATOM     18  C   UNL     1     -23.578 -13.577  10.533  0.00  0.00    -0.061 A 
ATOM     19  C   UNL     1     -24.269 -13.232   9.371  0.00  0.00    -0.062 A 
ATOM     20  C   UNL     1     -24.589 -14.211   8.431  0.00  0.00    -0.061 A 
ATOM     21  C   UNL     1     -24.225 -15.540   8.658  0.00  0.00    -0.050 A 
ENDBRANCH  13  16
ENDBRANCH  11  12
ENDBRANCH   9  10
BRANCH   7  22
ATOM     22  C   UNL     1     -22.434 -24.215  13.451  0.00  0.00    +0.048 C 
BRANCH  22  23
ATOM     23  C   UNL     1     -23.720 -24.368  12.675  0.00  0.00    -0.028 A 
ATOM     24  C   UNL     1     -24.820 -23.543  12.953  0.00  0.00    -0.055 A 
ATOM     25  C   UNL     1     -26.049 -23.768  12.330  0.00  0.00    -0.043 A 
ATOM     26  C   UNL     1     -26.181 -24.808  11.414  0.00  0.00    +0.041 A 
ATOM     27  C   UNL     1     -25.082 -25.595  11.079  0.00  0.00    -0.043 A 
ATOM     28  C   UNL     1     -23.853 -25.375  11.707  0.00  0.00    -0.055 A 
ATOM     29 CL   UNL     1     -27.717 -25.139  10.714  0.00  0.00    -0.084 Cl
ENDBRANCH  22  23
ENDBRANCH   7  22
TORSDOF 5
ENDMDL
