MODEL 1
REMARK VINA RESULT:    -9.615      0.000      0.000
REMARK INTER + INTRA:         -12.792
REMARK INTER:                 -12.707
REMARK INTRA:                  -0.085
REMARK UNBOUND:                -0.085
REMARK  Name = 24a.sdf
REMARK  6 active torsions:
REMARK  status: ('A' for Active; 'I' for Inactive)
REMARK    1  A    between atoms: N_7  and  C_10
REMARK    2  A    between atoms: C_9  and  C_18
REMARK    3  A    between atoms: C_10  and  C_11
REMARK    4  A    between atoms: N_19  and  N_20
REMARK    5  A    between atoms: C_21  and  C_23
REMARK    6  A    between atoms: C_26  and  O_29
REMARK                            x       y       z     vdW  Elec       q    Type
REMARK                         _______ _______ _______ _____ _____    ______ ____
ROOT
ATOM      1  C   UNL     1     -18.137 -21.077  14.385  0.00  0.00    -0.061 A 
ATOM      2  C   UNL     1     -18.172 -22.462  14.432  0.00  0.00    -0.060 A 
ATOM      3  C   UNL     1     -19.316 -23.175  14.038  0.00  0.00    -0.038 A 
ATOM      4  C   UNL     1     -20.458 -22.446  13.628  0.00  0.00    +0.050 A 
ATOM      5  C   UNL     1     -20.413 -21.049  13.516  0.00  0.00    +0.009 A 
ATOM      6  C   UNL     1     -19.236 -20.364  13.902  0.00  0.00    -0.052 A 
ATOM      7  N   UNL     1     -21.742 -22.845  13.296  0.00  0.00    -0.342 N 
ATOM      8  C   UNL     1     -22.460 -21.743  12.882  0.00  0.00    +0.015 A 
ATOM      9  C   UNL     1     -21.666 -20.617  12.979  0.00  0.00    +0.020 A 
ENDROOT
BRANCH   9  10
ATOM     10  C   UNL     1     -22.045 -19.268  12.605  0.00  0.00    +0.055 C 
ATOM     11  N   UNL     1     -22.135 -18.939  11.357  0.00  0.00    -0.187 NA
BRANCH  11  12
ATOM     12  N   UNL     1     -22.474 -17.638  11.101  0.00  0.00    -0.203 N 
ATOM     13  C   UNL     1     -23.258 -17.337   9.994  0.00  0.00    +0.263 C 
ATOM     14  O   UNL     1     -23.699 -18.169   9.199  0.00  0.00    -0.268 OA
ATOM     15  H   UNL     1     -22.164 -16.919  11.699  0.00  0.00    +0.000 HD
BRANCH  13  16
ATOM     16  C   UNL     1     -23.609 -15.903   9.795  0.00  0.00    +0.039 A 
ATOM     17  C   UNL     1     -24.249 -15.437   8.637  0.00  0.00    -0.046 A 
ATOM     18  C   UNL     1     -24.532 -14.075   8.488  0.00  0.00    -0.019 A 
ATOM     19  C   UNL     1     -24.185 -13.185   9.501  0.00  0.00    +0.117 A 
ATOM     20  C   UNL     1     -23.589 -13.635  10.673  0.00  0.00    -0.019 A 
ATOM     21  C   UNL     1     -23.304 -14.995  10.821  0.00  0.00    -0.046 A 
BRANCH  19  22
ATOM     22  O   UNL     1     -24.416 -11.847   9.384  0.00  0.00    -0.507 OA
ATOM     23  H   UNL     1     -24.534 -11.465   8.536  0.00  0.00    +0.000 HD
ENDBRANCH  19  22
ENDBRANCH  13  16
ENDBRANCH  11  12
ENDBRANCH   9  10
BRANCH   7  24
ATOM     24  C   UNL     1     -22.350 -24.169  13.470  0.00  0.00    +0.048 C 
BRANCH  24  25
ATOM     25  C   UNL     1     -23.641 -24.323  12.699  0.00  0.00    -0.028 A 
ATOM     26  C   UNL     1     -24.729 -23.478  12.963  0.00  0.00    -0.056 A 
ATOM     27  C   UNL     1     -25.987 -23.752  12.422  0.00  0.00    -0.047 A 
ATOM     28  C   UNL     1     -26.153 -24.848  11.577  0.00  0.00    +0.018 A 
ATOM     29  C   UNL     1     -25.056 -25.621  11.204  0.00  0.00    -0.047 A 
ATOM     30  C   UNL     1     -23.802 -25.357  11.762  0.00  0.00    -0.056 A 
ATOM     31 BR   UNL     1     -27.887 -25.337  11.009  0.00  0.00    -0.050 Br
ENDBRANCH  24  25
ENDBRANCH   7  24
TORSDOF 6
ENDMDL
