MODEL 1
REMARK VINA RESULT:    -7.198      0.000      0.000
REMARK INTER + INTRA:          -8.198
REMARK INTER:                  -8.040
REMARK INTRA:                  -0.158
REMARK UNBOUND:                -0.158
REMARK  Name = 2.sdf
REMARK  2 active torsions:
REMARK  status: ('A' for Active; 'I' for Inactive)
REMARK    1  A    between atoms: C_9  and  C_10
REMARK    2  A    between atoms: C_11  and  C_12
REMARK                            x       y       z     vdW  Elec       q    Type
REMARK                         _______ _______ _______ _____ _____    ______ ____
ROOT
ATOM      1  C   UNL     1     -25.247 -27.092  11.895  0.00  0.00    -0.061 A 
ATOM      2  C   UNL     1     -26.310 -26.203  11.774  0.00  0.00    -0.060 A 
ATOM      3  C   UNL     1     -26.146 -24.848  12.065  0.00  0.00    -0.038 A 
ATOM      4  C   UNL     1     -24.879 -24.417  12.481  0.00  0.00    +0.047 A 
ATOM      5  C   UNL     1     -23.784 -25.279  12.610  0.00  0.00    +0.007 A 
ATOM      6  C   UNL     1     -23.987 -26.646  12.313  0.00  0.00    -0.052 A 
ATOM      7  N   UNL     1     -24.454 -23.159  12.839  0.00  0.00    -0.360 N 
ATOM      8  C   UNL     1     -23.136 -23.190  13.208  0.00  0.00    +0.010 A 
ATOM      9  C   UNL     1     -22.682 -24.484  13.063  0.00  0.00    +0.000 A 
ATOM     10  H   UNL     1     -25.018 -22.351  12.831  0.00  0.00    +0.000 HD
ENDROOT
BRANCH   9  11
ATOM     11  C   UNL     1     -21.332 -24.855  13.370  0.00  0.00    -0.046 C 
ATOM     12  C   UNL     1     -20.236 -24.318  12.812  0.00  0.00    +0.023 C 
BRANCH  12  13
ATOM     13  C   UNL     1     -18.818 -24.635  13.067  0.00  0.00    +0.330 C 
ATOM     14  O   UNL     1     -18.284 -24.156  14.203  0.00  0.00    -0.478 OA
ATOM     15  O   UNL     1     -18.173 -25.304  12.274  0.00  0.00    -0.246 OA
ENDBRANCH  12  13
ENDBRANCH   9  11
TORSDOF 2
ENDMDL
