MODEL 1
REMARK VINA RESULT:    -7.312      0.000      0.000
REMARK INTER + INTRA:          -9.046
REMARK INTER:                  -8.808
REMARK INTRA:                  -0.238
REMARK UNBOUND:                -0.238
REMARK  Name = 3.sdf
REMARK  4 active torsions:
REMARK  status: ('A' for Active; 'I' for Inactive)
REMARK    1  A    between atoms: CG_9  and  CB_10
REMARK    2  A    between atoms: CB_10  and  CA_11
REMARK    3  A    between atoms: CA_11  and  C_12
REMARK    4  A    between atoms: CA_11  and  N_15
REMARK                            x       y       z     vdW  Elec       q    Type
REMARK                         _______ _______ _______ _____ _____    ______ ____
ROOT
ATOM      1  CZ3 TRP A   1     -25.174 -27.095  11.955  0.00  0.00    -0.061 A 
ATOM      2  CH2 TRP A   1     -26.257 -26.248  11.732  0.00  0.00    -0.060 A 
ATOM      3  CZ2 TRP A   1     -26.170 -24.883  12.014  0.00  0.00    -0.038 A 
ATOM      4  CE2 TRP A   1     -24.955 -24.399  12.514  0.00  0.00    +0.047 A 
ATOM      5  CD2 TRP A   1     -23.840 -25.212  12.723  0.00  0.00    +0.003 A 
ATOM      6  CE3 TRP A   1     -23.962 -26.591  12.448  0.00  0.00    -0.052 A 
ATOM      7  NE1 TRP A   1     -24.597 -23.124  12.876  0.00  0.00    -0.360 N 
ATOM      8  CD1 TRP A   1     -23.285 -23.090  13.258  0.00  0.00    +0.006 A 
ATOM      9  CG  TRP A   1     -22.766 -24.368  13.171  0.00  0.00    -0.020 A 
ATOM     10  HE1 TRP A   1     -25.201 -22.346  12.863  0.00  0.00    +0.000 HD
ENDROOT
BRANCH   9  11
ATOM     11  CB  TRP A   1     -21.348 -24.792  13.427  0.00  0.00    -0.000 C 
BRANCH  11  12
ATOM     12  CA  TRP A   1     -20.321 -24.323  12.388  0.00  0.00    +0.107 C 
BRANCH  12  13
ATOM     13  N   TRP A   1     -20.545 -24.980  11.072  0.00  0.00    -0.318 N 
ATOM     14  H1  TRP A   1     -21.451 -24.695  10.700  0.00  0.00    +0.000 HD
ATOM     15  H2  TRP A   1     -20.531 -25.994  11.192  0.00  0.00    +0.000 HD
ATOM     16  H3  TRP A   1     -19.808 -24.704  10.424  0.00  0.00    +0.000 HD
ENDBRANCH  12  13
BRANCH  12  17
ATOM     17  C   TRP A   1     -18.872 -24.561  12.840  0.00  0.00    +0.322 C 
ATOM     18  O   TRP A   1     -18.574 -24.022  14.049  0.00  0.00    -0.480 OA
ATOM     19  OXT TRP A   1     -18.074 -25.258  12.229  0.00  0.00    -0.249 OA
ENDBRANCH  12  17
ENDBRANCH  11  12
ENDBRANCH   9  11
TORSDOF 4
ENDMDL
