MODEL 1
REMARK VINA RESULT:    -8.336      0.000      0.000
REMARK INTER + INTRA:         -11.603
REMARK INTER:                 -11.016
REMARK INTRA:                  -0.587
REMARK UNBOUND:                -0.587
REMARK  Name = 3a.sdf
REMARK  6 active torsions:
REMARK  status: ('A' for Active; 'I' for Inactive)
REMARK    1  A    between atoms: N_7  and  C_12
REMARK    2  A    between atoms: C_9  and  C_10
REMARK    3  A    between atoms: C_10  and  CA_11
REMARK    4  A    between atoms: CA_11  and  C_20
REMARK    5  A    between atoms: CA_11  and  N_23
REMARK    6  A    between atoms: C_12  and  C_13
REMARK                            x       y       z     vdW  Elec       q    Type
REMARK                         _______ _______ _______ _____ _____    ______ ____
ROOT
ATOM      1  C   UNL     1     -25.440 -25.688  11.994  0.00  0.00    -0.061 A 
ATOM      2  C   UNL     1     -26.320 -24.613  12.050  0.00  0.00    -0.060 A 
ATOM      3  C   UNL     1     -25.898 -23.363  12.512  0.00  0.00    -0.038 A 
ATOM      4  C   UNL     1     -24.556 -23.210  12.898  0.00  0.00    +0.050 A 
ATOM      5  C   UNL     1     -23.644 -24.269  12.815  0.00  0.00    +0.003 A 
ATOM      6  C   UNL     1     -24.104 -25.527  12.371  0.00  0.00    -0.052 A 
ATOM      7  N   UNL     1     -23.871 -22.140  13.436  0.00  0.00    -0.342 N 
ATOM      8  C   UNL     1     -22.533 -22.439  13.523  0.00  0.00    +0.009 A 
ATOM      9  C   UNL     1     -22.368 -23.782  13.251  0.00  0.00    -0.020 A 
ENDROOT
BRANCH   9  10
ATOM     10  C   UNL     1     -21.112 -24.589  13.385  0.00  0.00    -0.000 C 
BRANCH  10  11
ATOM     11  CA  UNL     1     -20.033 -24.332  12.317  0.00  0.00    +0.107 C 
BRANCH  11  12
ATOM     12  N   UNL     1     -20.350 -25.132  11.103  0.00  0.00    -0.318 N 
ATOM     13  H1  UNL     1     -21.360 -25.241  11.022  0.00  0.00    +0.000 HD
ATOM     14  H2  UNL     1     -19.913 -26.051  11.179  0.00  0.00    +0.000 HD
ATOM     15  H3  UNL     1     -19.992 -24.652  10.276  0.00  0.00    +0.000 HD
ENDBRANCH  11  12
BRANCH  11  16
ATOM     16  C   UNL     1     -18.605 -24.628  12.840  0.00  0.00    +0.322 C 
ATOM     17  O   UNL     1     -18.372 -24.139  14.082  0.00  0.00    -0.480 OA
ATOM     18  OXT UNL     1     -17.750 -25.275  12.246  0.00  0.00    -0.249 OA
ENDBRANCH  11  16
ENDBRANCH  10  11
ENDBRANCH   9  10
BRANCH   7  19
ATOM     19  C   UNL     1     -24.457 -20.926  14.001  0.00  0.00    +0.048 C 
BRANCH  19  20
ATOM     20  C   UNL     1     -24.101 -19.707  13.191  0.00  0.00    -0.028 A 
ATOM     21  C   UNL     1     -25.044 -19.133  12.326  0.00  0.00    -0.056 A 
ATOM     22  C   UNL     1     -24.685 -18.086  11.478  0.00  0.00    -0.047 A 
ATOM     23  C   UNL     1     -23.383 -17.593  11.505  0.00  0.00    +0.018 A 
ATOM     24  C   UNL     1     -22.450 -18.109  12.401  0.00  0.00    -0.047 A 
ATOM     25  C   UNL     1     -22.808 -19.163  13.245  0.00  0.00    -0.056 A 
ATOM     26 BR   UNL     1     -22.872 -16.239  10.292  0.00  0.00    -0.050 Br
ENDBRANCH  19  20
ENDBRANCH   7  19
TORSDOF 6
ENDMDL
