MODEL 1
REMARK VINA RESULT:    -7.311      0.000      0.000
REMARK INTER + INTRA:          -8.790
REMARK INTER:                  -8.593
REMARK INTRA:                  -0.197
REMARK UNBOUND:                -0.197
REMARK  Name = 5.sdf
REMARK  4 active torsions:
REMARK  status: ('A' for Active; 'I' for Inactive)
REMARK    1  A    between atoms: C_9  and  C_10
REMARK    2  A    between atoms: C_11  and  C_12
REMARK    3  A    between atoms: C_12  and  O_13
REMARK    4  A    between atoms: O_13  and  C_15
REMARK                            x       y       z     vdW  Elec       q    Type
REMARK                         _______ _______ _______ _____ _____    ______ ____
ROOT
ATOM      1  C   UNL     1     -26.091 -27.462  11.244  0.00  0.00    -0.061 A 
ATOM      2  C   UNL     1     -27.268 -26.720  11.177  0.00  0.00    -0.060 A 
ATOM      3  C   UNL     1     -27.285 -25.383  11.573  0.00  0.00    -0.038 A 
ATOM      4  C   UNL     1     -26.088 -24.826  12.038  0.00  0.00    +0.047 A 
ATOM      5  C   UNL     1     -24.882 -25.533  12.121  0.00  0.00    +0.007 A 
ATOM      6  C   UNL     1     -24.898 -26.885  11.711  0.00  0.00    -0.052 A 
ATOM      7  N   UNL     1     -25.839 -23.549  12.479  0.00  0.00    -0.360 N 
ATOM      8  C   UNL     1     -24.529 -23.421  12.848  0.00  0.00    +0.010 A 
ATOM      9  C   UNL     1     -23.890 -24.629  12.644  0.00  0.00    +0.000 A 
ATOM     10  H   UNL     1     -26.509 -22.828  12.524  0.00  0.00    +0.000 HD
ENDROOT
BRANCH   9  11
ATOM     11  C   UNL     1     -22.494 -24.876  12.922  0.00  0.00    -0.046 C 
ATOM     12  C   UNL     1     -21.650 -23.941  13.409  0.00  0.00    +0.023 C 
BRANCH  12  13
ATOM     13  C   UNL     1     -20.216 -24.025  13.744  0.00  0.00    +0.332 C 
ATOM     14  O   UNL     1     -19.687 -23.164  14.435  0.00  0.00    -0.246 OA
BRANCH  13  15
ATOM     15  O   UNL     1     -19.586 -25.106  13.225  0.00  0.00    -0.465 OA
ATOM     16  C   UNL     1     -18.361 -24.765  12.562  0.00  0.00    +0.082 C 
ENDBRANCH  13  15
ENDBRANCH  12  13
ENDBRANCH   9  11
TORSDOF 3
ENDMDL
