MODEL 1
REMARK VINA RESULT:    -8.737      0.000      0.000
REMARK INTER + INTRA:         -11.056
REMARK INTER:                 -10.781
REMARK INTRA:                  -0.275
REMARK UNBOUND:                -0.275
REMARK  Name = 5d.sdf
REMARK  5 active torsions:
REMARK  status: ('A' for Active; 'I' for Inactive)
REMARK    1  A    between atoms: C_9  and  C_10
REMARK    2  A    between atoms: C_11  and  C_19
REMARK    3  A    between atoms: C_12  and  C_13
REMARK    4  A    between atoms: C_19  and  O_20
REMARK    5  A    between atoms: O_20  and  C_22
REMARK                            x       y       z     vdW  Elec       q    Type
REMARK                         _______ _______ _______ _____ _____    ______ ____
ROOT
ATOM      1  C   UNL     1     -18.327 -24.646  14.027  0.00  0.00    -0.061 A 
ATOM      2  C   UNL     1     -18.033 -23.310  14.264  0.00  0.00    -0.060 A 
ATOM      3  C   UNL     1     -18.969 -22.311  13.983  0.00  0.00    -0.037 A 
ATOM      4  C   UNL     1     -20.218 -22.685  13.452  0.00  0.00    +0.057 A 
ATOM      5  C   UNL     1     -20.538 -24.030  13.211  0.00  0.00    +0.007 A 
ATOM      6  C   UNL     1     -19.570 -25.016  13.502  0.00  0.00    -0.052 A 
ATOM      7  N   UNL     1     -21.340 -21.917  13.140  0.00  0.00    -0.283 N 
ATOM      8  C   UNL     1     -22.310 -22.772  12.634  0.00  0.00    +0.021 A 
ATOM      9  C   UNL     1     -21.866 -24.073  12.692  0.00  0.00    +0.001 A 
ATOM     10  C   UNL     1     -21.501 -20.518  13.321  0.00  0.00    +0.263 C 
ATOM     11  O   UNL     1     -20.497 -19.812  13.374  0.00  0.00    -0.267 OA
ENDROOT
BRANCH  10  12
ATOM     12  C   UNL     1     -22.834 -19.875  13.455  0.00  0.00    +0.040 A 
ATOM     13  C   UNL     1     -23.796 -20.436  14.306  0.00  0.00    -0.049 A 
ATOM     14  C   UNL     1     -25.071 -19.881  14.381  0.00  0.00    -0.061 A 
ATOM     15  C   UNL     1     -25.376 -18.743  13.637  0.00  0.00    -0.062 A 
ATOM     16  C   UNL     1     -24.400 -18.143  12.838  0.00  0.00    -0.061 A 
ATOM     17  C   UNL     1     -23.122 -18.701  12.751  0.00  0.00    -0.049 A 
ENDBRANCH  10  12
BRANCH   9  18
ATOM     18  C   UNL     1     -22.612 -25.235  12.299  0.00  0.00    -0.046 C 
ATOM     19  C   UNL     1     -23.918 -25.437  12.540  0.00  0.00    +0.023 C 
BRANCH  19  20
ATOM     20  C   UNL     1     -24.713 -26.623  12.156  0.00  0.00    +0.332 C 
ATOM     21  O   UNL     1     -24.813 -27.586  12.902  0.00  0.00    -0.246 OA
BRANCH  20  22
ATOM     22  O   UNL     1     -25.278 -26.507  10.929  0.00  0.00    -0.465 OA
ATOM     23  C   UNL     1     -26.238 -27.533  10.650  0.00  0.00    +0.082 C 
ENDBRANCH  20  22
ENDBRANCH  19  20
ENDBRANCH   9  18
TORSDOF 4
ENDMDL
