MODEL 1
REMARK VINA RESULT:    -6.807      0.000      0.000
REMARK INTER + INTRA:          -8.235
REMARK INTER:                  -8.001
REMARK INTRA:                  -0.234
REMARK UNBOUND:                -0.234
REMARK  Name = 7.sdf
REMARK  4 active torsions:
REMARK  status: ('A' for Active; 'I' for Inactive)
REMARK    1  A    between atoms: C_9  and  C_10
REMARK    2  A    between atoms: C_10  and  C_11
REMARK    3  A    between atoms: C_11  and  O_13
REMARK    4  A    between atoms: O_13  and  C_14
REMARK                            x       y       z     vdW  Elec       q    Type
REMARK                         _______ _______ _______ _____ _____    ______ ____
ROOT
ATOM      1  C   UNL     1     -25.864 -27.412  11.552  0.00  0.00    -0.061 A 
ATOM      2  C   UNL     1     -26.915 -26.536  11.288  0.00  0.00    -0.060 A 
ATOM      3  C   UNL     1     -26.807 -25.176  11.588  0.00  0.00    -0.038 A 
ATOM      4  C   UNL     1     -25.606 -24.727  12.151  0.00  0.00    +0.047 A 
ATOM      5  C   UNL     1     -24.527 -25.573  12.412  0.00  0.00    +0.003 A 
ATOM      6  C   UNL     1     -24.668 -26.945  12.112  0.00  0.00    -0.052 A 
ATOM      7  N   UNL     1     -25.234 -23.464  12.546  0.00  0.00    -0.360 N 
ATOM      8  C   UNL     1     -23.947 -23.471  13.008  0.00  0.00    +0.006 A 
ATOM      9  C   UNL     1     -23.465 -24.765  12.940  0.00  0.00    -0.012 A 
ATOM     10  H   UNL     1     -25.812 -22.667  12.502  0.00  0.00    +0.000 HD
ENDROOT
BRANCH   9  11
ATOM     11  C   UNL     1     -22.081 -25.209  13.298  0.00  0.00    +0.072 C 
BRANCH  11  12
ATOM     12  C   UNL     1     -20.999 -24.687  12.375  0.00  0.00    +0.311 C 
ATOM     13  O   UNL     1     -20.642 -25.171  11.310  0.00  0.00    -0.250 OA
BRANCH  12  14
ATOM     14  O   UNL     1     -20.450 -23.566  12.940  0.00  0.00    -0.468 OA
ATOM     15  C   UNL     1     -20.518 -22.388  12.134  0.00  0.00    +0.082 C 
ENDBRANCH  12  14
ENDBRANCH  11  12
ENDBRANCH   9  11
TORSDOF 3
ENDMDL
