MODEL 1
REMARK VINA RESULT:    -8.051      0.000      0.000
REMARK INTER + INTRA:         -11.125
REMARK INTER:                 -10.404
REMARK INTRA:                  -0.721
REMARK UNBOUND:                -0.721
REMARK  Name = 7a.sdf
REMARK  6 active torsions:
REMARK  status: ('A' for Active; 'I' for Inactive)
REMARK    1  A    between atoms: N_7  and  C_12
REMARK    2  A    between atoms: C_9  and  C_10
REMARK    3  A    between atoms: C_10  and  C_11
REMARK    4  A    between atoms: C_11  and  O_21
REMARK    5  A    between atoms: C_12  and  C_13
REMARK    6  A    between atoms: O_21  and  C_22
REMARK                            x       y       z     vdW  Elec       q    Type
REMARK                         _______ _______ _______ _____ _____    ______ ____
ROOT
ATOM      1  C   UNL     1     -18.306 -24.715  13.375  0.00  0.00    -0.061 A 
ATOM      2  C   UNL     1     -18.105 -23.616  14.203  0.00  0.00    -0.060 A 
ATOM      3  C   UNL     1     -19.124 -22.671  14.410  0.00  0.00    -0.038 A 
ATOM      4  C   UNL     1     -20.347 -22.842  13.734  0.00  0.00    +0.050 A 
ATOM      5  C   UNL     1     -20.585 -23.979  12.946  0.00  0.00    +0.004 A 
ATOM      6  C   UNL     1     -19.545 -24.918  12.767  0.00  0.00    -0.052 A 
ATOM      7  N   UNL     1     -21.485 -22.052  13.647  0.00  0.00    -0.342 N 
ATOM      8  C   UNL     1     -22.450 -22.716  12.927  0.00  0.00    +0.010 A 
ATOM      9  C   UNL     1     -21.939 -23.921  12.488  0.00  0.00    -0.012 A 
ENDROOT
BRANCH   9  10
ATOM     10  C   UNL     1     -22.676 -24.958  11.697  0.00  0.00    +0.072 C 
BRANCH  10  11
ATOM     11  C   UNL     1     -23.753 -25.681  12.482  0.00  0.00    +0.311 C 
ATOM     12  O   UNL     1     -23.574 -26.588  13.290  0.00  0.00    -0.250 OA
BRANCH  11  13
ATOM     13  O   UNL     1     -24.978 -25.176  12.152  0.00  0.00    -0.468 OA
ATOM     14  C   UNL     1     -25.323 -25.367  10.775  0.00  0.00    +0.082 C 
ENDBRANCH  11  13
ENDBRANCH  10  11
ENDBRANCH   9  10
BRANCH   7  15
ATOM     15  C   UNL     1     -21.656 -20.668  14.099  0.00  0.00    +0.048 C 
BRANCH  15  16
ATOM     16  C   UNL     1     -22.310 -19.802  13.047  0.00  0.00    -0.028 A 
ATOM     17  C   UNL     1     -21.634 -19.523  11.853  0.00  0.00    -0.056 A 
ATOM     18  C   UNL     1     -22.124 -18.558  10.972  0.00  0.00    -0.047 A 
ATOM     19  C   UNL     1     -23.314 -17.896  11.265  0.00  0.00    +0.018 A 
ATOM     20  C   UNL     1     -24.057 -18.244  12.390  0.00  0.00    -0.047 A 
ATOM     21  C   UNL     1     -23.557 -19.198  13.279  0.00  0.00    -0.056 A 
ATOM     22 BR   UNL     1     -23.878 -16.459  10.173  0.00  0.00    -0.050 Br
ENDBRANCH  15  16
ENDBRANCH   7  15
TORSDOF 5
ENDMDL
