MODEL 1
REMARK VINA RESULT:    -8.091      0.000      0.000
REMARK INTER + INTRA:         -11.143
REMARK INTER:                 -10.456
REMARK INTRA:                  -0.687
REMARK UNBOUND:                -0.687
REMARK  Name = 7c.sdf
REMARK  6 active torsions:
REMARK  status: ('A' for Active; 'I' for Inactive)
REMARK    1  A    between atoms: N_7  and  C_12
REMARK    2  A    between atoms: C_9  and  C_10
REMARK    3  A    between atoms: C_10  and  C_11
REMARK    4  A    between atoms: C_11  and  O_21
REMARK    5  A    between atoms: C_12  and  C_13
REMARK    6  A    between atoms: O_21  and  C_22
REMARK                            x       y       z     vdW  Elec       q    Type
REMARK                         _______ _______ _______ _____ _____    ______ ____
ROOT
ATOM      1  C   UNL     1     -18.280 -24.591  13.534  0.00  0.00    -0.061 A 
ATOM      2  C   UNL     1     -18.079 -23.430  14.272  0.00  0.00    -0.060 A 
ATOM      3  C   UNL     1     -19.079 -22.456  14.367  0.00  0.00    -0.038 A 
ATOM      4  C   UNL     1     -20.297 -22.684  13.704  0.00  0.00    +0.050 A 
ATOM      5  C   UNL     1     -20.535 -23.866  12.994  0.00  0.00    +0.004 A 
ATOM      6  C   UNL     1     -19.503 -24.823  12.899  0.00  0.00    -0.052 A 
ATOM      7  N   UNL     1     -21.431 -21.905  13.576  0.00  0.00    -0.342 N 
ATOM      8  C   UNL     1     -22.394 -22.592  12.879  0.00  0.00    +0.010 A 
ATOM      9  C   UNL     1     -21.878 -23.816  12.501  0.00  0.00    -0.012 A 
ENDROOT
BRANCH   9  10
ATOM     10  C   UNL     1     -22.593 -24.880  11.733  0.00  0.00    +0.072 C 
BRANCH  10  11
ATOM     11  C   UNL     1     -23.726 -25.518  12.507  0.00  0.00    +0.311 C 
ATOM     12  O   UNL     1     -23.651 -26.474  13.265  0.00  0.00    -0.250 OA
BRANCH  11  13
ATOM     13  O   UNL     1     -24.889 -24.855  12.218  0.00  0.00    -0.468 OA
ATOM     14  C   UNL     1     -25.466 -25.225  10.965  0.00  0.00    +0.082 C 
ENDBRANCH  11  13
ENDBRANCH  10  11
ENDBRANCH   9  10
BRANCH   7  15
ATOM     15  C   UNL     1     -21.589 -20.524  14.026  0.00  0.00    +0.048 C 
BRANCH  15  16
ATOM     16  C   UNL     1     -22.293 -19.687  12.987  0.00  0.00    -0.028 A 
ATOM     17  C   UNL     1     -21.628 -19.297  11.817  0.00  0.00    -0.055 A 
ATOM     18  C   UNL     1     -22.233 -18.420  10.916  0.00  0.00    -0.043 A 
ATOM     19  C   UNL     1     -23.513 -17.936  11.174  0.00  0.00    +0.041 A 
ATOM     20  C   UNL     1     -24.208 -18.352  12.307  0.00  0.00    -0.043 A 
ATOM     21  C   UNL     1     -23.602 -19.228  13.209  0.00  0.00    -0.055 A 
ATOM     22 CL   UNL     1     -24.230 -16.799  10.101  0.00  0.00    -0.084 Cl
ENDBRANCH  15  16
ENDBRANCH   7  15
TORSDOF 5
ENDMDL
