MODEL 1
REMARK VINA RESULT:    -8.206      0.000      0.000
REMARK INTER + INTRA:          -9.965
REMARK INTER:                  -9.646
REMARK INTRA:                  -0.320
REMARK UNBOUND:                -0.320
REMARK  Name = 8.sdf
REMARK  3 active torsions:
REMARK  status: ('A' for Active; 'I' for Inactive)
REMARK    1  A    between atoms: C_9  and  C_10
REMARK    2  A    between atoms: N_11  and  N_12
REMARK    3  A    between atoms: C_13  and  C_15
REMARK                            x       y       z     vdW  Elec       q    Type
REMARK                         _______ _______ _______ _____ _____    ______ ____
ROOT
ATOM      1  C   UNL     1     -21.318 -20.509  12.157  0.00  0.00    +0.055 C 
ATOM      2  N   UNL     1     -21.932 -19.423  12.495  0.00  0.00    -0.187 NA
ENDROOT
BRANCH   1  11
ATOM      3  C   UNL     1     -19.078 -24.639  12.403  0.00  0.00    -0.061 A 
ATOM      4  C   UNL     1     -18.306 -24.741  13.557  0.00  0.00    -0.060 A 
ATOM      5  C   UNL     1     -18.267 -23.701  14.488  0.00  0.00    -0.038 A 
ATOM      6  C   UNL     1     -19.023 -22.555  14.214  0.00  0.00    +0.047 A 
ATOM      7  C   UNL     1     -19.806 -22.416  13.065  0.00  0.00    +0.008 A 
ATOM      8  C   UNL     1     -19.833 -23.486  12.145  0.00  0.00    -0.052 A 
ATOM      9  N   UNL     1     -19.162 -21.397  14.944  0.00  0.00    -0.360 N 
ATOM     10  C   UNL     1     -19.994 -20.532  14.295  0.00  0.00    +0.011 A 
ATOM     11  C   UNL     1     -20.422 -21.123  13.119  0.00  0.00    +0.020 A 
ATOM     12  H   UNL     1     -18.725 -21.220  15.808  0.00  0.00    +0.000 HD
ENDBRANCH   1  11
BRANCH   2  13
ATOM     13  N   UNL     1     -22.767 -18.849  11.579  0.00  0.00    -0.203 N 
ATOM     14  C   UNL     1     -22.418 -17.608  11.061  0.00  0.00    +0.263 C 
ATOM     15  O   UNL     1     -21.398 -16.987  11.355  0.00  0.00    -0.268 OA
ATOM     16  H   UNL     1     -23.593 -19.302  11.294  0.00  0.00    +0.000 HD
BRANCH  14  17
ATOM     17  C   UNL     1     -23.345 -17.010  10.059  0.00  0.00    +0.038 A 
ATOM     18  C   UNL     1     -23.324 -15.650   9.726  0.00  0.00    -0.049 A 
ATOM     19  C   UNL     1     -24.188 -15.158   8.739  0.00  0.00    -0.047 A 
ATOM     20  C   UNL     1     -25.066 -16.023   8.086  0.00  0.00    +0.018 A 
ATOM     21  C   UNL     1     -25.092 -17.379   8.405  0.00  0.00    -0.047 A 
ATOM     22  C   UNL     1     -24.228 -17.870   9.387  0.00  0.00    -0.049 A 
ATOM     23 BR   UNL     1     -26.214 -15.356   6.741  0.00  0.00    -0.050 Br
ENDBRANCH  14  17
ENDBRANCH   2  13
TORSDOF 3
ENDMDL
