MODEL 1
REMARK VINA RESULT:    -9.614      0.000      0.000
REMARK INTER + INTRA:         -12.521
REMARK INTER:                 -12.424
REMARK INTRA:                  -0.096
REMARK UNBOUND:                -0.096
REMARK  Name = 8a.sdf
REMARK  5 active torsions:
REMARK  status: ('A' for Active; 'I' for Inactive)
REMARK    1  A    between atoms: N_7  and  C_12
REMARK    2  A    between atoms: C_9  and  C_10
REMARK    3  A    between atoms: N_11  and  N_20
REMARK    4  A    between atoms: C_12  and  C_13
REMARK    5  A    between atoms: C_21  and  C_23
REMARK                            x       y       z     vdW  Elec       q    Type
REMARK                         _______ _______ _______ _____ _____    ______ ____
ROOT
ATOM      1  C   UNL     1     -17.980 -21.305  14.398  0.00  0.00    -0.061 A 
ATOM      2  C   UNL     1     -18.085 -22.687  14.503  0.00  0.00    -0.060 A 
ATOM      3  C   UNL     1     -19.269 -23.346  14.158  0.00  0.00    -0.038 A 
ATOM      4  C   UNL     1     -20.350 -22.579  13.692  0.00  0.00    +0.050 A 
ATOM      5  C   UNL     1     -20.251 -21.191  13.535  0.00  0.00    +0.009 A 
ATOM      6  C   UNL     1     -19.049 -20.550  13.910  0.00  0.00    -0.052 A 
ATOM      7  N   UNL     1     -21.635 -22.934  13.327  0.00  0.00    -0.342 N 
ATOM      8  C   UNL     1     -22.313 -21.829  12.875  0.00  0.00    +0.015 A 
ATOM      9  C   UNL     1     -21.487 -20.727  12.981  0.00  0.00    +0.020 A 
ENDROOT
BRANCH   9  10
ATOM     10  C   UNL     1     -21.819 -19.376  12.596  0.00  0.00    +0.055 C 
ATOM     11  N   UNL     1     -22.118 -19.109  11.364  0.00  0.00    -0.187 NA
BRANCH  11  12
ATOM     12  N   UNL     1     -22.412 -17.803  11.089  0.00  0.00    -0.203 N 
ATOM     13  C   UNL     1     -23.167 -17.496   9.964  0.00  0.00    +0.263 C 
ATOM     14  O   UNL     1     -23.622 -18.309   9.171  0.00  0.00    -0.268 OA
ATOM     15  H   UNL     1     -22.091 -17.087  11.682  0.00  0.00    +0.000 HD
BRANCH  13  16
ATOM     16  C   UNL     1     -23.455 -16.046   9.761  0.00  0.00    +0.038 A 
ATOM     17  C   UNL     1     -24.283 -15.576   8.734  0.00  0.00    -0.049 A 
ATOM     18  C   UNL     1     -24.515 -14.204   8.593  0.00  0.00    -0.047 A 
ATOM     19  C   UNL     1     -23.930 -13.304   9.486  0.00  0.00    +0.018 A 
ATOM     20  C   UNL     1     -23.125 -13.761  10.525  0.00  0.00    -0.047 A 
ATOM     21  C   UNL     1     -22.893 -15.133  10.666  0.00  0.00    -0.049 A 
ATOM     22 BR   UNL     1     -24.245 -11.452   9.287  0.00  0.00    -0.050 Br
ENDBRANCH  13  16
ENDBRANCH  11  12
ENDBRANCH   9  10
BRANCH   7  23
ATOM     23  C   UNL     1     -22.247 -24.253  13.489  0.00  0.00    +0.048 C 
BRANCH  23  24
ATOM     24  C   UNL     1     -23.574 -24.345  12.777  0.00  0.00    -0.028 A 
ATOM     25  C   UNL     1     -24.627 -23.483  13.115  0.00  0.00    -0.056 A 
ATOM     26  C   UNL     1     -25.887 -23.638  12.533  0.00  0.00    -0.047 A 
ATOM     27  C   UNL     1     -26.097 -24.649  11.599  0.00  0.00    +0.018 A 
ATOM     28  C   UNL     1     -25.048 -25.481  11.211  0.00  0.00    -0.047 A 
ATOM     29  C   UNL     1     -23.791 -25.328  11.798  0.00  0.00    -0.056 A 
ATOM     30 BR   UNL     1     -27.823 -24.913  10.876  0.00  0.00    -0.050 Br
ENDBRANCH  23  24
ENDBRANCH   7  23
TORSDOF 5
ENDMDL
