MODEL 1
REMARK VINA RESULT:    -9.217      0.000      0.000
REMARK INTER + INTRA:         -11.222
REMARK INTER:                 -10.833
REMARK INTRA:                  -0.388
REMARK UNBOUND:                -0.388
REMARK  Name = 9.sdf
REMARK  3 active torsions:
REMARK  status: ('A' for Active; 'I' for Inactive)
REMARK    1  A    between atoms: C_9  and  C_10
REMARK    2  A    between atoms: C_11  and  C_12
REMARK    3  A    between atoms: C_12  and  C_13
REMARK                            x       y       z     vdW  Elec       q    Type
REMARK                         _______ _______ _______ _____ _____    ______ ____
ROOT
ATOM      1  C   UNL     1     -25.077 -27.475  11.674  0.00  0.00    -0.061 A 
ATOM      2  C   UNL     1     -26.391 -27.276  11.262  0.00  0.00    -0.060 A 
ATOM      3  C   UNL     1     -26.995 -26.022  11.374  0.00  0.00    -0.038 A 
ATOM      4  C   UNL     1     -26.232 -24.973  11.905  0.00  0.00    +0.047 A 
ATOM      5  C   UNL     1     -24.904 -25.128  12.313  0.00  0.00    +0.007 A 
ATOM      6  C   UNL     1     -24.329 -26.417  12.204  0.00  0.00    -0.052 A 
ATOM      7  N   UNL     1     -26.577 -23.662  12.137  0.00  0.00    -0.360 N 
ATOM      8  C   UNL     1     -25.522 -22.980  12.682  0.00  0.00    +0.010 A 
ATOM      9  C   UNL     1     -24.457 -23.849  12.778  0.00  0.00    +0.000 A 
ATOM     10  H   UNL     1     -27.458 -23.269  11.941  0.00  0.00    +0.000 HD
ENDROOT
BRANCH   9  11
ATOM     11  C   UNL     1     -23.178 -23.453  13.284  0.00  0.00    -0.049 C 
ATOM     12  C   UNL     1     -22.539 -22.328  12.931  0.00  0.00    -0.014 C 
BRANCH  12  13
ATOM     13  C   UNL     1     -21.192 -21.993  13.460  0.00  0.00    +0.186 C 
ATOM     14  O   UNL     1     -20.939 -20.916  13.984  0.00  0.00    -0.287 OA
BRANCH  13  15
ATOM     15  C   UNL     1     -20.140 -23.031  13.280  0.00  0.00    +0.022 A 
ATOM     16  C   UNL     1     -19.124 -23.150  14.234  0.00  0.00    -0.051 A 
ATOM     17  C   UNL     1     -18.118 -24.104  14.066  0.00  0.00    -0.061 A 
ATOM     18  C   UNL     1     -18.132 -24.950  12.956  0.00  0.00    -0.062 A 
ATOM     19  C   UNL     1     -19.157 -24.855  12.017  0.00  0.00    -0.061 A 
ATOM     20  C   UNL     1     -20.164 -23.902  12.181  0.00  0.00    -0.051 A 
ENDBRANCH  13  15
ENDBRANCH  12  13
ENDBRANCH   9  11
TORSDOF 3
ENDMDL
