REMARK VINA RESULT:    -8.614      4.387      6.607
REMARK INTER + INTRA:         -11.269
REMARK INTER:                 -10.634
REMARK INTRA:                  -0.636
REMARK UNBOUND:                -0.641
REMARK  Name = 17a.sdf
REMARK  4 active torsions:
REMARK  status: ('A' for Active; 'I' for Inactive)
REMARK    1  A    between atoms: N_7  and  C_16
REMARK    2  A    between atoms: C_9  and  C_10
REMARK    3  A    between atoms: N_11  and  N_12
REMARK    4  A    between atoms: C_16  and  C_17
REMARK                            x       y       z     vdW  Elec       q    Type
REMARK                         _______ _______ _______ _____ _____    ______ ____
ROOT
ATOM      1  C   UNL     1      77.999  -5.710  31.907  0.00  0.00    -0.061 A 
ATOM      2  C   UNL     1      76.895  -5.389  31.127  0.00  0.00    -0.060 A 
ATOM      3  C   UNL     1      76.480  -6.225  30.084  0.00  0.00    -0.038 A 
ATOM      4  C   UNL     1      77.209  -7.402  29.839  0.00  0.00    +0.050 A 
ATOM      5  C   UNL     1      78.290  -7.772  30.652  0.00  0.00    +0.009 A 
ATOM      6  C   UNL     1      78.693  -6.902  31.690  0.00  0.00    -0.052 A 
ATOM      7  N   UNL     1      77.091  -8.372  28.860  0.00  0.00    -0.342 N 
ATOM      8  C   UNL     1      78.000  -9.374  29.092  0.00  0.00    +0.015 A 
ATOM      9  C   UNL     1      78.754  -9.043  30.200  0.00  0.00    +0.020 A 
ENDROOT
BRANCH   9  10
ATOM     10  C   UNL     1      79.807  -9.852  30.776  0.00  0.00    +0.055 C 
ATOM     11  N   UNL     1      80.538 -10.581  29.998  0.00  0.00    -0.186 NA
BRANCH  11  12
ATOM     12  N   UNL     1      81.496 -11.324  30.623  0.00  0.00    -0.191 N 
ATOM     13  C   UNL     1      81.850 -12.571  30.172  0.00  0.00    +0.317 C 
ATOM     14  O   UNL     1      82.660 -13.286  30.741  0.00  0.00    -0.251 OA
ATOM     15  N   UNL     1      81.216 -12.947  29.031  0.00  0.00    -0.312 N 
ATOM     16  H   UNL     1      81.946 -10.957  31.417  0.00  0.00    +0.000 HD
ATOM     17  H   UNL     1      80.569 -12.340  28.605  0.00  0.00    +0.000 HD
ATOM     18  H   UNL     1      81.404 -13.826  28.631  0.00  0.00    +0.000 HD
ENDBRANCH  11  12
ENDBRANCH   9  10
BRANCH   7  19
ATOM     19  C   UNL     1      76.239  -8.321  27.671  0.00  0.00    +0.048 C 
BRANCH  19  20
ATOM     20  C   UNL     1      76.951  -8.848  26.450  0.00  0.00    -0.028 A 
ATOM     21  C   UNL     1      76.764 -10.176  26.041  0.00  0.00    -0.056 A 
ATOM     22  C   UNL     1      77.533 -10.716  25.010  0.00  0.00    -0.047 A 
ATOM     23  C   UNL     1      78.481  -9.924  24.368  0.00  0.00    +0.018 A 
ATOM     24  C   UNL     1      78.624  -8.580  24.707  0.00  0.00    -0.047 A 
ATOM     25  C   UNL     1      77.858  -8.042  25.744  0.00  0.00    -0.056 A 
ATOM     26 BR   UNL     1      79.613 -10.690  23.063  0.00  0.00    -0.050 Br
ENDBRANCH  19  20
ENDBRANCH   7  19
TORSDOF 4
