REMARK VINA RESULT:    -9.221      1.420      2.193
REMARK INTER + INTRA:         -11.653
REMARK INTER:                 -10.923
REMARK INTRA:                  -0.730
REMARK UNBOUND:                -0.277
REMARK  Name = 17c.sdf
REMARK  4 active torsions:
REMARK  status: ('A' for Active; 'I' for Inactive)
REMARK    1  A    between atoms: N_7  and  C_16
REMARK    2  A    between atoms: C_9  and  C_10
REMARK    3  A    between atoms: N_11  and  N_12
REMARK    4  A    between atoms: C_16  and  C_17
REMARK                            x       y       z     vdW  Elec       q    Type
REMARK                         _______ _______ _______ _____ _____    ______ ____
ROOT
ATOM      1  C   UNL     1      82.062 -13.860  25.074  0.00  0.00    -0.061 A 
ATOM      2  C   UNL     1      80.954 -13.755  24.242  0.00  0.00    -0.060 A 
ATOM      3  C   UNL     1      80.391 -12.507  23.939  0.00  0.00    -0.038 A 
ATOM      4  C   UNL     1      80.952 -11.357  24.523  0.00  0.00    +0.050 A 
ATOM      5  C   UNL     1      82.104 -11.439  25.320  0.00  0.00    +0.009 A 
ATOM      6  C   UNL     1      82.659 -12.710  25.595  0.00  0.00    -0.052 A 
ATOM      7  N   UNL     1      80.570 -10.023  24.500  0.00  0.00    -0.342 N 
ATOM      8  C   UNL     1      81.501  -9.272  25.178  0.00  0.00    +0.015 A 
ATOM      9  C   UNL     1      82.474 -10.109  25.687  0.00  0.00    +0.020 A 
ENDROOT
BRANCH   9  10
ATOM     10  C   UNL     1      83.637  -9.695  26.447  0.00  0.00    +0.055 C 
ATOM     11  N   UNL     1      84.807  -9.786  25.902  0.00  0.00    -0.186 NA
BRANCH  11  12
ATOM     12  N   UNL     1      85.860  -9.413  26.692  0.00  0.00    -0.191 N 
ATOM     13  C   UNL     1      86.763 -10.336  27.176  0.00  0.00    +0.317 C 
ATOM     14  O   UNL     1      87.723 -10.030  27.854  0.00  0.00    -0.251 OA
ATOM     15  N   UNL     1      86.470 -11.610  26.836  0.00  0.00    -0.312 N 
ATOM     16  H   UNL     1      85.977  -8.462  26.918  0.00  0.00    +0.000 HD
ATOM     17  H   UNL     1      85.679 -11.803  26.283  0.00  0.00    +0.000 HD
ATOM     18  H   UNL     1      87.049 -12.346  27.141  0.00  0.00    +0.000 HD
ENDBRANCH  11  12
ENDBRANCH   9  10
BRANCH   7  19
ATOM     19  C   UNL     1      79.312  -9.462  23.993  0.00  0.00    +0.048 C 
BRANCH  19  20
ATOM     20  C   UNL     1      78.364  -9.091  25.107  0.00  0.00    -0.028 A 
ATOM     21  C   UNL     1      77.503 -10.056  25.649  0.00  0.00    -0.055 A 
ATOM     22  C   UNL     1      76.476  -9.681  26.518  0.00  0.00    -0.043 A 
ATOM     23  C   UNL     1      76.332  -8.345  26.882  0.00  0.00    +0.041 A 
ATOM     24  C   UNL     1      77.251  -7.394  26.447  0.00  0.00    -0.043 A 
ATOM     25  C   UNL     1      78.267  -7.766  25.563  0.00  0.00    -0.055 A 
ATOM     26 CL   UNL     1      74.977  -7.861  27.824  0.00  0.00    -0.084 Cl
ENDBRANCH  19  20
ENDBRANCH   7  19
TORSDOF 4
