REMARK VINA RESULT:    -8.174      1.738      2.016
REMARK INTER + INTRA:         -10.115
REMARK INTER:                  -9.650
REMARK INTRA:                  -0.465
REMARK UNBOUND:                -0.507
REMARK  Name = 1c.sdf
REMARK  3 active torsions:
REMARK  status: ('A' for Active; 'I' for Inactive)
REMARK    1  A    between atoms: N_7  and  C_12
REMARK    2  A    between atoms: C_9  and  C_10
REMARK    3  A    between atoms: C_12  and  C_13
REMARK                            x       y       z     vdW  Elec       q    Type
REMARK                         _______ _______ _______ _____ _____    ______ ____
ROOT
ATOM      1  C   UNL     1      75.199  -3.772  30.587  0.00  0.00    -0.061 A 
ATOM      2  C   UNL     1      74.283  -4.114  29.597  0.00  0.00    -0.060 A 
ATOM      3  C   UNL     1      74.342  -5.357  28.948  0.00  0.00    -0.038 A 
ATOM      4  C   UNL     1      75.371  -6.249  29.295  0.00  0.00    +0.050 A 
ATOM      5  C   UNL     1      76.265  -5.946  30.336  0.00  0.00    +0.010 A 
ATOM      6  C   UNL     1      76.174  -4.691  30.979  0.00  0.00    -0.052 A 
ATOM      7  N   UNL     1      75.758  -7.481  28.779  0.00  0.00    -0.342 N 
ATOM      8  C   UNL     1      76.788  -7.989  29.537  0.00  0.00    +0.016 A 
ATOM      9  C   UNL     1      77.118  -7.068  30.509  0.00  0.00    +0.039 A 
ENDROOT
BRANCH   9  10
ATOM     10  C   UNL     1      78.164  -7.239  31.504  0.00  0.00    +0.152 C 
ATOM     11  O   UNL     1      77.972  -7.184  32.711  0.00  0.00    -0.296 OA
ENDBRANCH   9  10
BRANCH   7  12
ATOM     12  C   UNL     1      75.310  -8.119  27.537  0.00  0.00    +0.048 C 
BRANCH  12  13
ATOM     13  C   UNL     1      76.464  -8.604  26.693  0.00  0.00    -0.028 A 
ATOM     14  C   UNL     1      77.371  -7.684  26.151  0.00  0.00    -0.055 A 
ATOM     15  C   UNL     1      78.307  -8.090  25.199  0.00  0.00    -0.043 A 
ATOM     16  C   UNL     1      78.367  -9.426  24.813  0.00  0.00    +0.041 A 
ATOM     17  C   UNL     1      77.553 -10.374  25.428  0.00  0.00    -0.043 A 
ATOM     18  C   UNL     1      76.604  -9.965  26.371  0.00  0.00    -0.055 A 
ATOM     19 CL   UNL     1      79.410  -9.896  23.528  0.00  0.00    -0.084 Cl
ENDBRANCH  12  13
ENDBRANCH   7  12
TORSDOF 3
