REMARK VINA RESULT:    -9.844      0.000      0.000
REMARK INTER + INTRA:         -14.209
REMARK INTER:                 -13.297
REMARK INTRA:                  -0.912
REMARK UNBOUND:                -0.912
REMARK  Name = 26a.sdf
REMARK  7 active torsions:
REMARK  status: ('A' for Active; 'I' for Inactive)
REMARK    1  A    between atoms: N_7  and  C_10
REMARK    2  A    between atoms: C_9  and  C_18
REMARK    3  A    between atoms: C_10  and  C_11
REMARK    4  A    between atoms: N_19  and  N_20
REMARK    5  A    between atoms: C_21  and  C_23
REMARK    6  A    between atoms: C_26  and  O_29
REMARK    7  A    between atoms: C_28  and  O_30
REMARK                            x       y       z     vdW  Elec       q    Type
REMARK                         _______ _______ _______ _____ _____    ______ ____
ROOT
ATOM      1  C   UNL     1      79.806 -11.976  23.016  0.00  0.00    -0.061 A 
ATOM      2  C   UNL     1      80.950 -12.738  22.816  0.00  0.00    -0.060 A 
ATOM      3  C   UNL     1      81.863 -12.952  23.853  0.00  0.00    -0.038 A 
ATOM      4  C   UNL     1      81.592 -12.384  25.109  0.00  0.00    +0.050 A 
ATOM      5  C   UNL     1      80.420 -11.653  25.347  0.00  0.00    +0.009 A 
ATOM      6  C   UNL     1      79.525 -11.438  24.275  0.00  0.00    -0.052 A 
ATOM      7  N   UNL     1      82.317 -12.377  26.287  0.00  0.00    -0.342 N 
ATOM      8  C   UNL     1      81.599 -11.742  27.268  0.00  0.00    +0.015 A 
ATOM      9  C   UNL     1      80.417 -11.280  26.727  0.00  0.00    +0.020 A 
ENDROOT
BRANCH   9  10
ATOM     10  C   UNL     1      79.388 -10.558  27.445  0.00  0.00    +0.055 C 
ATOM     11  N   UNL     1      79.118  -9.336  27.119  0.00  0.00    -0.187 NA
BRANCH  11  12
ATOM     12  N   UNL     1      78.144  -8.743  27.864  0.00  0.00    -0.203 N 
ATOM     13  C   UNL     1      76.824  -8.764  27.456  0.00  0.00    +0.267 C 
ATOM     14  O   UNL     1      76.410  -9.309  26.432  0.00  0.00    -0.268 OA
ATOM     15  H   UNL     1      78.384  -8.291  28.704  0.00  0.00    +0.000 HD
BRANCH  13  16
ATOM     16  C   UNL     1      75.850  -8.053  28.352  0.00  0.00    +0.080 A 
ATOM     17  C   UNL     1      74.775  -7.387  27.739  0.00  0.00    -0.043 A 
ATOM     18  C   UNL     1      73.831  -6.689  28.495  0.00  0.00    -0.019 A 
ATOM     19  C   UNL     1      73.961  -6.656  29.879  0.00  0.00    +0.120 A 
ATOM     20  C   UNL     1      75.009  -7.312  30.514  0.00  0.00    +0.022 A 
ATOM     21  C   UNL     1      75.953  -8.008  29.753  0.00  0.00    +0.132 A 
BRANCH  19  22
ATOM     22  O   UNL     1      73.075  -5.978  30.662  0.00  0.00    -0.507 OA
ATOM     23  H   UNL     1      72.342  -6.426  31.036  0.00  0.00    +0.000 HD
ENDBRANCH  19  22
BRANCH  21  24
ATOM     24  O   UNL     1      76.981  -8.640  30.409  0.00  0.00    -0.506 OA
ATOM     25  H   UNL     1      76.882  -9.529  30.688  0.00  0.00    +0.000 HD
ENDBRANCH  21  24
ENDBRANCH  13  16
ENDBRANCH  11  12
ENDBRANCH   9  10
BRANCH   7  26
ATOM     26  C   UNL     1      83.686 -12.853  26.468  0.00  0.00    +0.048 C 
BRANCH  26  27
ATOM     27  C   UNL     1      84.669 -11.712  26.543  0.00  0.00    -0.028 A 
ATOM     28  C   UNL     1      85.868 -11.851  27.256  0.00  0.00    -0.056 A 
ATOM     29  C   UNL     1      86.725 -10.763  27.425  0.00  0.00    -0.047 A 
ATOM     30  C   UNL     1      86.392  -9.530  26.870  0.00  0.00    +0.018 A 
ATOM     31  C   UNL     1      85.233  -9.386  26.112  0.00  0.00    -0.047 A 
ATOM     32  C   UNL     1      84.374 -10.475  25.949  0.00  0.00    -0.056 A 
ATOM     33 BR   UNL     1      87.506  -8.035  27.179  0.00  0.00    -0.050 Br
ENDBRANCH  26  27
ENDBRANCH   7  26
TORSDOF 7
