REMARK VINA RESULT:    -9.468      2.442      8.632
REMARK INTER + INTRA:         -13.179
REMARK INTER:                 -12.732
REMARK INTRA:                  -0.446
REMARK UNBOUND:                -0.943
REMARK  Name = 8a.sdf
REMARK  5 active torsions:
REMARK  status: ('A' for Active; 'I' for Inactive)
REMARK    1  A    between atoms: N_7  and  C_12
REMARK    2  A    between atoms: C_9  and  C_10
REMARK    3  A    between atoms: N_11  and  N_20
REMARK    4  A    between atoms: C_12  and  C_13
REMARK    5  A    between atoms: C_21  and  C_23
REMARK                            x       y       z     vdW  Elec       q    Type
REMARK                         _______ _______ _______ _____ _____    ______ ____
ROOT
ATOM      1  C   UNL     1      82.324 -14.351  24.611  0.00  0.00    -0.061 A 
ATOM      2  C   UNL     1      83.682 -14.584  24.795  0.00  0.00    -0.060 A 
ATOM      3  C   UNL     1      84.483 -13.664  25.477  0.00  0.00    -0.038 A 
ATOM      4  C   UNL     1      83.881 -12.500  25.984  0.00  0.00    +0.050 A 
ATOM      5  C   UNL     1      82.507 -12.266  25.850  0.00  0.00    +0.009 A 
ATOM      6  C   UNL     1      81.726 -13.204  25.138  0.00  0.00    -0.052 A 
ATOM      7  N   UNL     1      84.411 -11.409  26.647  0.00  0.00    -0.342 N 
ATOM      8  C   UNL     1      83.405 -10.544  26.999  0.00  0.00    +0.015 A 
ATOM      9  C   UNL     1      82.206 -11.043  26.529  0.00  0.00    +0.020 A 
ENDROOT
BRANCH   9  10
ATOM     10  C   UNL     1      80.907 -10.437  26.703  0.00  0.00    +0.055 C 
ATOM     11  N   UNL     1      80.264 -10.594  27.817  0.00  0.00    -0.187 NA
BRANCH  11  12
ATOM     12  N   UNL     1      79.039  -9.992  27.892  0.00  0.00    -0.203 N 
ATOM     13  C   UNL     1      78.625  -9.434  29.094  0.00  0.00    +0.263 C 
ATOM     14  O   UNL     1      79.275  -9.417  30.130  0.00  0.00    -0.268 OA
ATOM     15  H   UNL     1      78.456  -9.954  27.100  0.00  0.00    +0.000 HD
BRANCH  13  16
ATOM     16  C   UNL     1      77.284  -8.779  29.069  0.00  0.00    +0.038 A 
ATOM     17  C   UNL     1      76.628  -8.355  30.232  0.00  0.00    -0.049 A 
ATOM     18  C   UNL     1      75.371  -7.748  30.145  0.00  0.00    -0.047 A 
ATOM     19  C   UNL     1      74.776  -7.556  28.897  0.00  0.00    +0.018 A 
ATOM     20  C   UNL     1      75.428  -7.952  27.734  0.00  0.00    -0.047 A 
ATOM     21  C   UNL     1      76.685  -8.559  27.819  0.00  0.00    -0.049 A 
ATOM     22 BR   UNL     1      73.075  -6.740  28.788  0.00  0.00    -0.050 Br
ENDBRANCH  13  16
ENDBRANCH  11  12
ENDBRANCH   9  10
BRANCH   7  23
ATOM     23  C   UNL     1      85.832 -11.133  26.861  0.00  0.00    +0.048 C 
BRANCH  23  24
ATOM     24  C   UNL     1      86.209 -11.235  28.318  0.00  0.00    -0.028 A 
ATOM     25  C   UNL     1      85.219 -11.349  29.305  0.00  0.00    -0.056 A 
ATOM     26  C   UNL     1      85.562 -11.335  30.658  0.00  0.00    -0.047 A 
ATOM     27  C   UNL     1      86.898 -11.221  31.032  0.00  0.00    +0.018 A 
ATOM     28  C   UNL     1      87.899 -11.160  30.065  0.00  0.00    -0.047 A 
ATOM     29  C   UNL     1      87.555 -11.168  28.712  0.00  0.00    -0.056 A 
ATOM     30 BR   UNL     1      87.353 -11.114  32.864  0.00  0.00    -0.050 Br
ENDBRANCH  23  24
ENDBRANCH   7  23
TORSDOF 5
