REMARK  Name = 9.sdf
REMARK  3 active torsions:
REMARK  status: ('A' for Active; 'I' for Inactive)
REMARK    1  A    between atoms: C_9  and  C_10
REMARK    2  A    between atoms: C_11  and  C_12
REMARK    3  A    between atoms: C_12  and  C_13
REMARK                            x       y       z     vdW  Elec       q    Type
REMARK                         _______ _______ _______ _____ _____    ______ ____
ROOT
ATOM      1  C   UNL     1       1.716  -0.375  -1.903  0.00  0.00    -0.061 A 
ATOM      2  C   UNL     1       1.715   0.978  -1.582  0.00  0.00    -0.060 A 
ATOM      3  C   UNL     1       0.707   1.525  -0.784  0.00  0.00    -0.038 A 
ATOM      4  C   UNL     1      -0.293   0.664  -0.312  0.00  0.00    +0.047 A 
ATOM      5  C   UNL     1      -0.317  -0.704  -0.597  0.00  0.00    +0.007 A 
ATOM      6  C   UNL     1       0.708  -1.221  -1.424  0.00  0.00    -0.052 A 
ATOM      7  N   UNL     1      -1.394   0.936   0.467  0.00  0.00    -0.360 N 
ATOM      8  C   UNL     1      -2.119  -0.206   0.683  0.00  0.00    +0.010 A 
ATOM      9  C   UNL     1      -1.466  -1.249   0.064  0.00  0.00    +0.000 A 
ATOM     10  H   UNL     1      -1.628   1.825   0.819  0.00  0.00    +0.000 HD
ENDROOT
BRANCH   9  11
ATOM     11  C   UNL     1      -1.941  -2.598   0.114  0.00  0.00    -0.049 C 
ATOM     12  C   UNL     1      -1.153  -3.681   0.061  0.00  0.00    -0.014 C 
BRANCH  12  13
ATOM     13  C   UNL     1      -1.710  -5.058   0.074  0.00  0.00    +0.186 C 
ATOM     14  O   UNL     1      -2.817  -5.317   0.529  0.00  0.00    -0.287 OA
BRANCH  13  15
ATOM     15  C   UNL     1      -0.826  -6.128  -0.465  0.00  0.00    +0.022 A 
ATOM     16  C   UNL     1      -0.885  -7.410   0.091  0.00  0.00    -0.051 A 
ATOM     17  C   UNL     1      -0.044  -8.417  -0.390  0.00  0.00    -0.061 A 
ATOM     18  C   UNL     1       0.844  -8.151  -1.433  0.00  0.00    -0.062 A 
ATOM     19  C   UNL     1       0.886  -6.883  -2.009  0.00  0.00    -0.061 A 
ATOM     20  C   UNL     1       0.049  -5.874  -1.531  0.00  0.00    -0.051 A 
ENDBRANCH  13  15
ENDBRANCH  12  13
ENDBRANCH   9  11
TORSDOF 3
