MODEL 1
REMARK VINA RESULT:    -4.771      0.000      0.000
REMARK INTER + INTRA:          -4.771
REMARK INTER:                  -4.771
REMARK INTRA:                   0.000
REMARK UNBOUND:                 0.000
REMARK  Name = 0.sdf
REMARK  0 active torsions:
REMARK  status: ('A' for Active; 'I' for Inactive)
REMARK                            x       y       z     vdW  Elec       q    Type
REMARK                         _______ _______ _______ _____ _____    ______ ____
ROOT
ATOM      1  C   UNL     1      17.668  -5.922 -15.401  0.00  0.00    -0.061 A 
ATOM      2  C   UNL     1      18.768  -6.748 -15.178  0.00  0.00    -0.060 A 
ATOM      3  C   UNL     1      18.680  -7.851 -14.321  0.00  0.00    -0.038 A 
ATOM      4  C   UNL     1      17.451  -8.087 -13.694  0.00  0.00    +0.046 A 
ATOM      5  C   UNL     1      16.335  -7.275 -13.897  0.00  0.00    -0.000 A 
ATOM      6  C   UNL     1      16.446  -6.175 -14.768  0.00  0.00    -0.053 A 
ATOM      7  N   UNL     1      17.078  -9.076 -12.812  0.00  0.00    -0.361 N 
ATOM      8  C   UNL     1      15.769  -8.912 -12.442  0.00  0.00    +0.003 A 
ATOM      9  C   UNL     1      15.281  -7.808 -13.102  0.00  0.00    -0.037 A 
ATOM     10  H   UNL     1      17.668  -9.796 -12.492  0.00  0.00    +0.000 HD
ENDROOT
TORSDOF 0
ENDMDL
MODEL 2
REMARK VINA RESULT:    -4.748      3.349      4.169
REMARK INTER + INTRA:          -4.748
REMARK INTER:                  -4.748
REMARK INTRA:                   0.000
REMARK UNBOUND:                 0.000
REMARK  Name = 0.sdf
REMARK  0 active torsions:
REMARK  status: ('A' for Active; 'I' for Inactive)
REMARK                            x       y       z     vdW  Elec       q    Type
REMARK                         _______ _______ _______ _____ _____    ______ ____
ROOT
ATOM      1  C   UNL     1      15.324  -6.715 -11.978  0.00  0.00    -0.061 A 
ATOM      2  C   UNL     1      15.246  -8.055 -12.353  0.00  0.00    -0.060 A 
ATOM      3  C   UNL     1      14.442  -8.459 -13.425  0.00  0.00    -0.038 A 
ATOM      4  C   UNL     1      13.718  -7.468 -14.099  0.00  0.00    +0.046 A 
ATOM      5  C   UNL     1      13.775  -6.120 -13.744  0.00  0.00    -0.000 A 
ATOM      6  C   UNL     1      14.596  -5.738 -12.666  0.00  0.00    -0.053 A 
ATOM      7  N   UNL     1      12.856  -7.568 -15.169  0.00  0.00    -0.361 N 
ATOM      8  C   UNL     1      12.360  -6.334 -15.496  0.00  0.00    +0.003 A 
ATOM      9  C   UNL     1      12.916  -5.417 -14.634  0.00  0.00    -0.037 A 
ATOM     10  H   UNL     1      12.629  -8.407 -15.631  0.00  0.00    +0.000 HD
ENDROOT
TORSDOF 0
ENDMDL
MODEL 3
REMARK VINA RESULT:    -4.745      2.648      4.102
REMARK INTER + INTRA:          -4.745
REMARK INTER:                  -4.745
REMARK INTRA:                   0.000
REMARK UNBOUND:                 0.000
REMARK  Name = 0.sdf
REMARK  0 active torsions:
REMARK  status: ('A' for Active; 'I' for Inactive)
REMARK                            x       y       z     vdW  Elec       q    Type
REMARK                         _______ _______ _______ _____ _____    ______ ____
ROOT
ATOM      1  C   UNL     1      17.599  -7.175 -14.279  0.00  0.00    -0.061 A 
ATOM      2  C   UNL     1      18.720  -7.690 -14.929  0.00  0.00    -0.060 A 
ATOM      3  C   UNL     1      19.109  -7.211 -16.185  0.00  0.00    -0.038 A 
ATOM      4  C   UNL     1      18.329  -6.203 -16.763  0.00  0.00    +0.046 A 
ATOM      5  C   UNL     1      17.202  -5.671 -16.137  0.00  0.00    -0.000 A 
ATOM      6  C   UNL     1      16.833  -6.164 -14.871  0.00  0.00    -0.053 A 
ATOM      7  N   UNL     1      18.466  -5.554 -17.970  0.00  0.00    -0.361 N 
ATOM      8  C   UNL     1      17.460  -4.638 -18.132  0.00  0.00    +0.003 A 
ATOM      9  C   UNL     1      16.665  -4.684 -17.011  0.00  0.00    -0.037 A 
ATOM     10  H   UNL     1      19.183  -5.725 -18.622  0.00  0.00    +0.000 HD
ENDROOT
TORSDOF 0
ENDMDL
