MODEL 1
REMARK VINA RESULT:    -6.588      0.000      0.000
REMARK INTER + INTRA:          -7.878
REMARK INTER:                  -7.358
REMARK INTRA:                  -0.520
REMARK UNBOUND:                -0.520
REMARK  Name = 0b.sdf
REMARK  2 active torsions:
REMARK  status: ('A' for Active; 'I' for Inactive)
REMARK    1  A    between atoms: N_7  and  C_10
REMARK    2  A    between atoms: C_10  and  C_11
REMARK                            x       y       z     vdW  Elec       q    Type
REMARK                         _______ _______ _______ _____ _____    ______ ____
ROOT
ATOM      1  C   UNL     1      18.976  -7.303 -15.137  0.00  0.00    -0.061 A 
ATOM      2  C   UNL     1      18.340  -6.081 -15.325  0.00  0.00    -0.060 A 
ATOM      3  C   UNL     1      17.139  -5.784 -14.671  0.00  0.00    -0.038 A 
ATOM      4  C   UNL     1      16.594  -6.752 -13.811  0.00  0.00    +0.049 A 
ATOM      5  C   UNL     1      17.235  -7.977 -13.589  0.00  0.00    -0.000 A 
ATOM      6  C   UNL     1      18.437  -8.257 -14.270  0.00  0.00    -0.053 A 
ATOM      7  N   UNL     1      15.429  -6.769 -13.065  0.00  0.00    -0.342 N 
ATOM      8  C   UNL     1      15.350  -7.940 -12.348  0.00  0.00    +0.006 A 
ATOM      9  C   UNL     1      16.450  -8.704 -12.656  0.00  0.00    -0.036 A 
ENDROOT
BRANCH   7  10
ATOM     10  C   UNL     1      14.359  -5.779 -13.121  0.00  0.00    +0.048 C 
BRANCH  10  11
ATOM     11  C   UNL     1      13.368  -6.064 -14.218  0.00  0.00    -0.025 A 
ATOM     12  C   UNL     1      13.458  -5.417 -15.454  0.00  0.00    -0.039 A 
ATOM     13  C   UNL     1      12.520  -5.708 -16.430  0.00  0.00    +0.028 A 
ATOM     14  N   UNL     1      11.516  -6.594 -16.266  0.00  0.00    -0.263 NA
ATOM     15  C   UNL     1      11.441  -7.209 -15.068  0.00  0.00    +0.028 A 
ATOM     16  C   UNL     1      12.329  -6.984 -14.028  0.00  0.00    -0.039 A 
ENDBRANCH  10  11
ENDBRANCH   7  10
TORSDOF 2
ENDMDL
MODEL 2
REMARK VINA RESULT:    -6.446      2.208      3.724
REMARK INTER + INTRA:          -7.720
REMARK INTER:                  -7.190
REMARK INTRA:                  -0.530
REMARK UNBOUND:                -0.520
REMARK  Name = 0b.sdf
REMARK  2 active torsions:
REMARK  status: ('A' for Active; 'I' for Inactive)
REMARK    1  A    between atoms: N_7  and  C_10
REMARK    2  A    between atoms: C_10  and  C_11
REMARK                            x       y       z     vdW  Elec       q    Type
REMARK                         _______ _______ _______ _____ _____    ______ ____
ROOT
ATOM      1  C   UNL     1      17.017  -5.592 -19.155  0.00  0.00    -0.061 A 
ATOM      2  C   UNL     1      16.283  -4.833 -18.250  0.00  0.00    -0.060 A 
ATOM      3  C   UNL     1      16.476  -4.966 -16.871  0.00  0.00    -0.038 A 
ATOM      4  C   UNL     1      17.441  -5.884 -16.421  0.00  0.00    +0.049 A 
ATOM      5  C   UNL     1      18.209  -6.637 -17.317  0.00  0.00    -0.000 A 
ATOM      6  C   UNL     1      17.985  -6.494 -18.702  0.00  0.00    -0.053 A 
ATOM      7  N   UNL     1      17.831  -6.259 -15.148  0.00  0.00    -0.342 N 
ATOM      8  C   UNL     1      18.849  -7.180 -15.223  0.00  0.00    +0.006 A 
ATOM      9  C   UNL     1      19.099  -7.433 -16.551  0.00  0.00    -0.036 A 
ENDROOT
BRANCH   7  10
ATOM     10  C   UNL     1      17.183  -5.867 -13.901  0.00  0.00    +0.048 C 
BRANCH  10  11
ATOM     11  C   UNL     1      15.892  -6.604 -13.666  0.00  0.00    -0.025 A 
ATOM     12  C   UNL     1      14.661  -5.950 -13.777  0.00  0.00    -0.039 A 
ATOM     13  C   UNL     1      13.499  -6.668 -13.547  0.00  0.00    +0.028 A 
ATOM     14  N   UNL     1      13.479  -7.978 -13.226  0.00  0.00    -0.263 NA
ATOM     15  C   UNL     1      14.674  -8.595 -13.120  0.00  0.00    +0.028 A 
ATOM     16  C   UNL     1      15.889  -7.962 -13.329  0.00  0.00    -0.039 A 
ENDBRANCH  10  11
ENDBRANCH   7  10
TORSDOF 2
ENDMDL
MODEL 3
REMARK VINA RESULT:    -6.323      1.675      5.125
REMARK INTER + INTRA:          -7.582
REMARK INTER:                  -7.095
REMARK INTRA:                  -0.487
REMARK UNBOUND:                -0.520
REMARK  Name = 0b.sdf
REMARK  2 active torsions:
REMARK  status: ('A' for Active; 'I' for Inactive)
REMARK    1  A    between atoms: N_7  and  C_10
REMARK    2  A    between atoms: C_10  and  C_11
REMARK                            x       y       z     vdW  Elec       q    Type
REMARK                         _______ _______ _______ _____ _____    ______ ____
ROOT
ATOM      1  C   UNL     1      10.867  -6.242 -15.068  0.00  0.00    -0.061 A 
ATOM      2  C   UNL     1      11.826  -5.255 -15.265  0.00  0.00    -0.060 A 
ATOM      3  C   UNL     1      13.155  -5.450 -14.872  0.00  0.00    -0.038 A 
ATOM      4  C   UNL     1      13.499  -6.677 -14.279  0.00  0.00    +0.049 A 
ATOM      5  C   UNL     1      12.553  -7.693 -14.098  0.00  0.00    -0.000 A 
ATOM      6  C   UNL     1      11.217  -7.466 -14.490  0.00  0.00    -0.053 A 
ATOM      7  N   UNL     1      14.693  -7.148 -13.766  0.00  0.00    -0.342 N 
ATOM      8  C   UNL     1      14.535  -8.439 -13.319  0.00  0.00    +0.006 A 
ATOM      9  C   UNL     1      13.221  -8.797 -13.510  0.00  0.00    -0.036 A 
ENDROOT
BRANCH   7  10
ATOM     10  C   UNL     1      15.914  -6.370 -13.578  0.00  0.00    +0.048 C 
BRANCH  10  11
ATOM     11  C   UNL     1      16.899  -6.565 -14.699  0.00  0.00    -0.025 A 
ATOM     12  C   UNL     1      16.714  -5.939 -15.935  0.00  0.00    -0.039 A 
ATOM     13  C   UNL     1      17.645  -6.153 -16.938  0.00  0.00    +0.028 A 
ATOM     14  N   UNL     1      18.738  -6.929 -16.794  0.00  0.00    -0.263 NA
ATOM     15  C   UNL     1      18.902  -7.528 -15.596  0.00  0.00    +0.028 A 
ATOM     16  C   UNL     1      18.026  -7.379 -14.533  0.00  0.00    -0.039 A 
ENDBRANCH  10  11
ENDBRANCH   7  10
TORSDOF 2
ENDMDL
