MODEL 1
REMARK VINA RESULT:    -7.749      0.000      0.000
REMARK INTER + INTRA:         -11.774
REMARK INTER:                 -10.466
REMARK INTRA:                  -1.308
REMARK UNBOUND:                -1.308
REMARK  Name = 10a.sdf
REMARK  7 active torsions:
REMARK  status: ('A' for Active; 'I' for Inactive)
REMARK    1  A    between atoms: N_7  and  C_22
REMARK    2  A    between atoms: C_9  and  C_10
REMARK    3  A    between atoms: C_11  and  C_12
REMARK    4  A    between atoms: C_12  and  C_13
REMARK    5  A    between atoms: C_17  and  O_20
REMARK    6  A    between atoms: O_20  and  C_21
REMARK    7  A    between atoms: C_22  and  C_23
REMARK                            x       y       z     vdW  Elec       q    Type
REMARK                         _______ _______ _______ _____ _____    ______ ____
ROOT
ATOM      1  C   UNL     1      14.745  -5.478 -19.868  0.00  0.00    -0.061 A 
ATOM      2  C   UNL     1      13.950  -4.811 -20.791  0.00  0.00    -0.060 A 
ATOM      3  C   UNL     1      12.565  -4.723 -20.618  0.00  0.00    -0.038 A 
ATOM      4  C   UNL     1      11.994  -5.318 -19.481  0.00  0.00    +0.050 A 
ATOM      5  C   UNL     1      12.780  -5.963 -18.517  0.00  0.00    +0.007 A 
ATOM      6  C   UNL     1      14.173  -6.051 -18.727  0.00  0.00    -0.052 A 
ATOM      7  N   UNL     1      10.678  -5.429 -19.069  0.00  0.00    -0.342 N 
ATOM      8  C   UNL     1      10.624  -6.056 -17.844  0.00  0.00    +0.013 A 
ATOM      9  C   UNL     1      11.907  -6.398 -17.474  0.00  0.00    +0.000 A 
ENDROOT
BRANCH   9  10
ATOM     10  C   UNL     1      12.298  -7.048 -16.259  0.00  0.00    -0.049 C 
ATOM     11  C   UNL     1      12.708  -6.425 -15.146  0.00  0.00    -0.014 C 
BRANCH  11  12
ATOM     12  C   UNL     1      13.166  -7.204 -13.961  0.00  0.00    +0.186 C 
ATOM     13  O   UNL     1      12.407  -7.623 -13.104  0.00  0.00    -0.287 OA
BRANCH  12  14
ATOM     14  C   UNL     1      14.645  -7.423 -13.859  0.00  0.00    +0.022 A 
ATOM     15  C   UNL     1      15.498  -6.669 -14.664  0.00  0.00    -0.047 A 
ATOM     16  C   UNL     1      16.876  -6.910 -14.629  0.00  0.00    -0.019 A 
ATOM     17  C   UNL     1      17.411  -7.882 -13.783  0.00  0.00    +0.120 A 
ATOM     18  C   UNL     1      16.560  -8.611 -12.946  0.00  0.00    -0.019 A 
ATOM     19  C   UNL     1      15.182  -8.379 -12.984  0.00  0.00    -0.047 A 
BRANCH  17  20
ATOM     20  O   UNL     1      18.760  -8.067 -13.886  0.00  0.00    -0.495 OA
ATOM     21  C   UNL     1      19.465  -7.174 -14.740  0.00  0.00    +0.079 C 
ENDBRANCH  17  20
ENDBRANCH  12  14
ENDBRANCH  11  12
ENDBRANCH   9  10
BRANCH   7  22
ATOM     22  C   UNL     1       9.496  -5.053 -19.843  0.00  0.00    +0.048 C 
BRANCH  22  23
ATOM     23  C   UNL     1       8.840  -3.809 -19.299  0.00  0.00    -0.028 A 
ATOM     24  C   UNL     1       7.468  -3.796 -19.007  0.00  0.00    -0.056 A 
ATOM     25  C   UNL     1       6.836  -2.618 -18.603  0.00  0.00    -0.047 A 
ATOM     26  C   UNL     1       7.577  -1.447 -18.476  0.00  0.00    +0.018 A 
ATOM     27  C   UNL     1       8.950  -1.451 -18.711  0.00  0.00    -0.047 A 
ATOM     28  C   UNL     1       9.580  -2.629 -19.119  0.00  0.00    -0.056 A 
ATOM     29 BR   UNL     1       6.708   0.167 -18.014  0.00  0.00    -0.050 Br
ENDBRANCH  22  23
ENDBRANCH   7  22
TORSDOF 6
ENDMDL
MODEL 2
REMARK VINA RESULT:    -7.532      2.974      7.094
REMARK INTER + INTRA:         -11.482
REMARK INTER:                 -10.987
REMARK INTRA:                  -0.495
REMARK UNBOUND:                -1.308
REMARK  Name = 10a.sdf
REMARK  7 active torsions:
REMARK  status: ('A' for Active; 'I' for Inactive)
REMARK    1  A    between atoms: N_7  and  C_22
REMARK    2  A    between atoms: C_9  and  C_10
REMARK    3  A    between atoms: C_11  and  C_12
REMARK    4  A    between atoms: C_12  and  C_13
REMARK    5  A    between atoms: C_17  and  O_20
REMARK    6  A    between atoms: O_20  and  C_21
REMARK    7  A    between atoms: C_22  and  C_23
REMARK                            x       y       z     vdW  Elec       q    Type
REMARK                         _______ _______ _______ _____ _____    ______ ____
ROOT
ATOM      1  C   UNL     1      18.552  -7.712 -14.052  0.00  0.00    -0.061 A 
ATOM      2  C   UNL     1      19.487  -7.299 -14.993  0.00  0.00    -0.060 A 
ATOM      3  C   UNL     1      19.095  -6.607 -16.143  0.00  0.00    -0.038 A 
ATOM      4  C   UNL     1      17.729  -6.329 -16.322  0.00  0.00    +0.050 A 
ATOM      5  C   UNL     1      16.773  -6.701 -15.368  0.00  0.00    +0.007 A 
ATOM      6  C   UNL     1      17.197  -7.414 -14.226  0.00  0.00    -0.052 A 
ATOM      7  N   UNL     1      17.049  -5.711 -17.356  0.00  0.00    -0.342 N 
ATOM      8  C   UNL     1      15.711  -5.619 -17.045  0.00  0.00    +0.013 A 
ATOM      9  C   UNL     1      15.506  -6.221 -15.822  0.00  0.00    +0.000 A 
ENDROOT
BRANCH   9  10
ATOM     10  C   UNL     1      14.261  -6.326 -15.122  0.00  0.00    -0.049 C 
ATOM     11  C   UNL     1      13.588  -7.464 -14.908  0.00  0.00    -0.014 C 
BRANCH  11  12
ATOM     12  C   UNL     1      12.259  -7.448 -14.232  0.00  0.00    +0.186 C 
ATOM     13  O   UNL     1      12.009  -8.107 -13.238  0.00  0.00    -0.287 OA
BRANCH  12  14
ATOM     14  C   UNL     1      11.214  -6.586 -14.872  0.00  0.00    +0.022 A 
ATOM     15  C   UNL     1      10.035  -7.175 -15.327  0.00  0.00    -0.047 A 
ATOM     16  C   UNL     1       9.080  -6.395 -15.987  0.00  0.00    -0.019 A 
ATOM     17  C   UNL     1       9.283  -5.028 -16.180  0.00  0.00    +0.120 A 
ATOM     18  C   UNL     1      10.447  -4.428 -15.689  0.00  0.00    -0.019 A 
ATOM     19  C   UNL     1      11.407  -5.206 -15.036  0.00  0.00    -0.047 A 
BRANCH  17  20
ATOM     20  O   UNL     1       8.310  -4.388 -16.892  0.00  0.00    -0.495 OA
ATOM     21  C   UNL     1       8.649  -3.975 -18.211  0.00  0.00    +0.079 C 
ENDBRANCH  17  20
ENDBRANCH  12  14
ENDBRANCH  11  12
ENDBRANCH   9  10
BRANCH   7  22
ATOM     22  C   UNL     1      17.614  -5.308 -18.643  0.00  0.00    +0.048 C 
BRANCH  22  23
ATOM     23  C   UNL     1      16.543  -4.927 -19.634  0.00  0.00    -0.028 A 
ATOM     24  C   UNL     1      16.396  -3.594 -20.046  0.00  0.00    -0.056 A 
ATOM     25  C   UNL     1      15.342  -3.219 -20.882  0.00  0.00    -0.047 A 
ATOM     26  C   UNL     1      14.435  -4.180 -21.321  0.00  0.00    +0.018 A 
ATOM     27  C   UNL     1      14.595  -5.517 -20.965  0.00  0.00    -0.047 A 
ATOM     28  C   UNL     1      15.647  -5.890 -20.126  0.00  0.00    -0.056 A 
ATOM     29 BR   UNL     1      12.959  -3.660 -22.381  0.00  0.00    -0.050 Br
ENDBRANCH  22  23
ENDBRANCH   7  22
TORSDOF 6
ENDMDL
MODEL 3
REMARK VINA RESULT:    -7.407      1.856      3.663
REMARK INTER + INTRA:         -11.313
REMARK INTER:                 -10.265
REMARK INTRA:                  -1.048
REMARK UNBOUND:                -1.308
REMARK  Name = 10a.sdf
REMARK  7 active torsions:
REMARK  status: ('A' for Active; 'I' for Inactive)
REMARK    1  A    between atoms: N_7  and  C_22
REMARK    2  A    between atoms: C_9  and  C_10
REMARK    3  A    between atoms: C_11  and  C_12
REMARK    4  A    between atoms: C_12  and  C_13
REMARK    5  A    between atoms: C_17  and  O_20
REMARK    6  A    between atoms: O_20  and  C_21
REMARK    7  A    between atoms: C_22  and  C_23
REMARK                            x       y       z     vdW  Elec       q    Type
REMARK                         _______ _______ _______ _____ _____    ______ ____
ROOT
ATOM      1  C   UNL     1      11.590  -7.312 -15.499  0.00  0.00    -0.061 A 
ATOM      2  C   UNL     1      10.441  -7.384 -16.278  0.00  0.00    -0.060 A 
ATOM      3  C   UNL     1      10.442  -6.940 -17.604  0.00  0.00    -0.038 A 
ATOM      4  C   UNL     1      11.637  -6.427 -18.136  0.00  0.00    +0.050 A 
ATOM      5  C   UNL     1      12.817  -6.382 -17.382  0.00  0.00    +0.007 A 
ATOM      6  C   UNL     1      12.781  -6.821 -16.041  0.00  0.00    -0.052 A 
ATOM      7  N   UNL     1      11.929  -5.886 -19.376  0.00  0.00    -0.342 N 
ATOM      8  C   UNL     1      13.268  -5.574 -19.445  0.00  0.00    +0.013 A 
ATOM      9  C   UNL     1      13.847  -5.868 -18.229  0.00  0.00    +0.000 A 
ENDROOT
BRANCH   9  10
ATOM     10  C   UNL     1      15.228  -5.714 -17.883  0.00  0.00    -0.049 C 
ATOM     11  C   UNL     1      16.132  -5.029 -18.595  0.00  0.00    -0.014 C 
BRANCH  11  12
ATOM     12  C   UNL     1      17.564  -4.997 -18.181  0.00  0.00    +0.186 C 
ATOM     13  O   UNL     1      18.414  -4.356 -18.774  0.00  0.00    -0.287 OA
BRANCH  12  14
ATOM     14  C   UNL     1      17.916  -5.837 -16.992  0.00  0.00    +0.022 A 
ATOM     15  C   UNL     1      18.624  -7.023 -17.187  0.00  0.00    -0.047 A 
ATOM     16  C   UNL     1      18.901  -7.852 -16.095  0.00  0.00    -0.019 A 
ATOM     17  C   UNL     1      18.495  -7.498 -14.807  0.00  0.00    +0.120 A 
ATOM     18  C   UNL     1      17.820  -6.290 -14.605  0.00  0.00    -0.019 A 
ATOM     19  C   UNL     1      17.534  -5.463 -15.695  0.00  0.00    -0.047 A 
BRANCH  17  20
ATOM     20  O   UNL     1      18.767  -8.418 -13.836  0.00  0.00    -0.495 OA
ATOM     21  C   UNL     1      17.660  -8.907 -13.088  0.00  0.00    +0.079 C 
ENDBRANCH  17  20
ENDBRANCH  12  14
ENDBRANCH  11  12
ENDBRANCH   9  10
BRANCH   7  22
ATOM     22  C   UNL     1      10.966  -5.575 -20.430  0.00  0.00    +0.048 C 
BRANCH  22  23
ATOM     23  C   UNL     1       9.931  -4.578 -19.971  0.00  0.00    -0.028 A 
ATOM     24  C   UNL     1       8.564  -4.889 -20.035  0.00  0.00    -0.056 A 
ATOM     25  C   UNL     1       7.600  -3.933 -19.709  0.00  0.00    -0.047 A 
ATOM     26  C   UNL     1       7.998  -2.662 -19.305  0.00  0.00    +0.018 A 
ATOM     27  C   UNL     1       9.351  -2.351 -19.184  0.00  0.00    -0.047 A 
ATOM     28  C   UNL     1      10.314  -3.307 -19.514  0.00  0.00    -0.056 A 
ATOM     29 BR   UNL     1       6.695  -1.341 -18.947  0.00  0.00    -0.050 Br
ENDBRANCH  22  23
ENDBRANCH   7  22
TORSDOF 6
ENDMDL
