MODEL 1
REMARK VINA RESULT:    -9.374      0.000      0.000
REMARK INTER + INTRA:         -13.935
REMARK INTER:                 -12.114
REMARK INTRA:                  -1.821
REMARK UNBOUND:                -1.821
REMARK  Name = 15d.sdf
REMARK  5 active torsions:
REMARK  status: ('A' for Active; 'I' for Inactive)
REMARK    1  A    between atoms: C_9  and  C_10
REMARK    2  A    between atoms: C_10  and  O_11
REMARK    3  A    between atoms: O_11  and  C_12
REMARK    4  A    between atoms: C_12  and  C_13
REMARK    5  A    between atoms: C_15  and  C_16
REMARK                            x       y       z     vdW  Elec       q    Type
REMARK                         _______ _______ _______ _____ _____    ______ ____
ROOT
ATOM      1  C   UNL     1      10.747  -5.033 -19.837  0.00  0.00    -0.061 A 
ATOM      2  C   UNL     1      10.007  -5.372 -18.713  0.00  0.00    -0.060 A 
ATOM      3  C   UNL     1      10.623  -5.937 -17.591  0.00  0.00    -0.037 A 
ATOM      4  C   UNL     1      12.012  -6.162 -17.627  0.00  0.00    +0.057 A 
ATOM      5  C   UNL     1      12.775  -5.822 -18.755  0.00  0.00    +0.007 A 
ATOM      6  C   UNL     1      12.127  -5.251 -19.867  0.00  0.00    -0.052 A 
ATOM      7  N   UNL     1      12.887  -6.641 -16.651  0.00  0.00    -0.283 N 
ATOM      8  C   UNL     1      14.160  -6.672 -17.203  0.00  0.00    +0.020 A 
ATOM      9  C   UNL     1      14.136  -6.149 -18.479  0.00  0.00    +0.015 A 
ATOM     10  C   UNL     1      12.566  -7.009 -15.319  0.00  0.00    +0.263 C 
ATOM     11  O   UNL     1      11.413  -7.346 -15.065  0.00  0.00    -0.267 OA
ENDROOT
BRANCH  10  12
ATOM     12  C   UNL     1      13.565  -6.996 -14.216  0.00  0.00    +0.040 A 
ATOM     13  C   UNL     1      14.221  -8.178 -13.848  0.00  0.00    -0.049 A 
ATOM     14  C   UNL     1      15.110  -8.179 -12.776  0.00  0.00    -0.061 A 
ATOM     15  C   UNL     1      15.372  -6.994 -12.090  0.00  0.00    -0.062 A 
ATOM     16  C   UNL     1      14.766  -5.803 -12.494  0.00  0.00    -0.061 A 
ATOM     17  C   UNL     1      13.868  -5.797 -13.562  0.00  0.00    -0.049 A 
ENDBRANCH  10  12
BRANCH   9  18
ATOM     18  C   UNL     1      15.316  -5.934 -19.377  0.00  0.00    +0.120 C 
BRANCH  18  19
ATOM     19  O   UNL     1      16.363  -5.204 -18.716  0.00  0.00    -0.456 OA
BRANCH  19  20
ATOM     20  C   UNL     1      17.554  -5.836 -18.615  0.00  0.00    +0.339 C 
ATOM     21  O   UNL     1      18.295  -6.135 -19.536  0.00  0.00    -0.245 OA
BRANCH  20  22
ATOM     22  C   UNL     1      17.866  -6.158 -17.193  0.00  0.00    +0.059 A 
ATOM     23  C   UNL     1      18.697  -7.257 -16.928  0.00  0.00    -0.048 A 
ATOM     24  C   UNL     1      18.997  -7.614 -15.612  0.00  0.00    -0.061 A 
ATOM     25  C   UNL     1      18.477  -6.873 -14.553  0.00  0.00    -0.062 A 
ATOM     26  C   UNL     1      17.665  -5.768 -14.808  0.00  0.00    -0.061 A 
ATOM     27  C   UNL     1      17.358  -5.410 -16.124  0.00  0.00    -0.048 A 
ENDBRANCH  20  22
ENDBRANCH  19  20
ENDBRANCH  18  19
ENDBRANCH   9  18
TORSDOF 5
ENDMDL
MODEL 2
REMARK VINA RESULT:    -8.581      1.362      4.814
REMARK INTER + INTRA:         -12.911
REMARK INTER:                 -11.465
REMARK INTRA:                  -1.446
REMARK UNBOUND:                -1.821
REMARK  Name = 15d.sdf
REMARK  5 active torsions:
REMARK  status: ('A' for Active; 'I' for Inactive)
REMARK    1  A    between atoms: C_9  and  C_10
REMARK    2  A    between atoms: C_10  and  O_11
REMARK    3  A    between atoms: O_11  and  C_12
REMARK    4  A    between atoms: C_12  and  C_13
REMARK    5  A    between atoms: C_15  and  C_16
REMARK                            x       y       z     vdW  Elec       q    Type
REMARK                         _______ _______ _______ _____ _____    ______ ____
ROOT
ATOM      1  C   UNL     1      13.672  -4.876 -21.796  0.00  0.00    -0.061 A 
ATOM      2  C   UNL     1      15.000  -4.472 -21.836  0.00  0.00    -0.060 A 
ATOM      3  C   UNL     1      15.811  -4.560 -20.700  0.00  0.00    -0.037 A 
ATOM      4  C   UNL     1      15.252  -5.061 -19.509  0.00  0.00    +0.057 A 
ATOM      5  C   UNL     1      13.913  -5.476 -19.453  0.00  0.00    +0.007 A 
ATOM      6  C   UNL     1      13.122  -5.380 -20.614  0.00  0.00    -0.052 A 
ATOM      7  N   UNL     1      15.829  -5.317 -18.264  0.00  0.00    -0.283 N 
ATOM      8  C   UNL     1      14.833  -5.807 -17.430  0.00  0.00    +0.020 A 
ATOM      9  C   UNL     1      13.654  -5.948 -18.131  0.00  0.00    +0.015 A 
ATOM     10  C   UNL     1      17.188  -5.146 -17.898  0.00  0.00    +0.263 C 
ATOM     11  O   UNL     1      17.869  -4.342 -18.529  0.00  0.00    -0.267 OA
ENDROOT
BRANCH  10  12
ATOM     12  C   UNL     1      17.827  -5.904 -16.789  0.00  0.00    +0.040 A 
ATOM     13  C   UNL     1      18.568  -7.061 -17.063  0.00  0.00    -0.049 A 
ATOM     14  C   UNL     1      19.115  -7.804 -16.019  0.00  0.00    -0.061 A 
ATOM     15  C   UNL     1      18.951  -7.377 -14.703  0.00  0.00    -0.062 A 
ATOM     16  C   UNL     1      18.266  -6.191 -14.431  0.00  0.00    -0.061 A 
ATOM     17  C   UNL     1      17.709  -5.447 -15.472  0.00  0.00    -0.049 A 
ENDBRANCH  10  12
BRANCH   9  18
ATOM     18  C   UNL     1      12.370  -6.519 -17.612  0.00  0.00    +0.120 C 
BRANCH  18  19
ATOM     19  O   UNL     1      12.566  -7.245 -16.388  0.00  0.00    -0.456 OA
BRANCH  19  20
ATOM     20  C   UNL     1      12.305  -6.568 -15.247  0.00  0.00    +0.339 C 
ATOM     21  O   UNL     1      11.329  -5.870 -15.028  0.00  0.00    -0.245 OA
BRANCH  20  22
ATOM     22  C   UNL     1      13.398  -6.760 -14.252  0.00  0.00    +0.059 A 
ATOM     23  C   UNL     1      13.890  -8.058 -14.048  0.00  0.00    -0.048 A 
ATOM     24  C   UNL     1      14.895  -8.293 -13.108  0.00  0.00    -0.061 A 
ATOM     25  C   UNL     1      15.421  -7.234 -12.371  0.00  0.00    -0.062 A 
ATOM     26  C   UNL     1      14.951  -5.938 -12.580  0.00  0.00    -0.061 A 
ATOM     27  C   UNL     1      13.942  -5.699 -13.517  0.00  0.00    -0.048 A 
ENDBRANCH  20  22
ENDBRANCH  19  20
ENDBRANCH  18  19
ENDBRANCH   9  18
TORSDOF 5
ENDMDL
MODEL 3
REMARK VINA RESULT:    -8.206      1.653      5.357
REMARK INTER + INTRA:         -12.426
REMARK INTER:                 -10.872
REMARK INTRA:                  -1.554
REMARK UNBOUND:                -1.821
REMARK  Name = 15d.sdf
REMARK  5 active torsions:
REMARK  status: ('A' for Active; 'I' for Inactive)
REMARK    1  A    between atoms: C_9  and  C_10
REMARK    2  A    between atoms: C_10  and  O_11
REMARK    3  A    between atoms: O_11  and  C_12
REMARK    4  A    between atoms: C_12  and  C_13
REMARK    5  A    between atoms: C_15  and  C_16
REMARK                            x       y       z     vdW  Elec       q    Type
REMARK                         _______ _______ _______ _____ _____    ______ ____
ROOT
ATOM      1  C   UNL     1      19.339  -7.299 -15.244  0.00  0.00    -0.061 A 
ATOM      2  C   UNL     1      18.614  -7.817 -14.179  0.00  0.00    -0.060 A 
ATOM      3  C   UNL     1      17.290  -7.426 -13.955  0.00  0.00    -0.037 A 
ATOM      4  C   UNL     1      16.707  -6.488 -14.829  0.00  0.00    +0.057 A 
ATOM      5  C   UNL     1      17.425  -5.958 -15.911  0.00  0.00    +0.007 A 
ATOM      6  C   UNL     1      18.755  -6.375 -16.114  0.00  0.00    -0.052 A 
ATOM      7  N   UNL     1      15.411  -5.974 -14.886  0.00  0.00    -0.283 N 
ATOM      8  C   UNL     1      15.359  -5.075 -15.943  0.00  0.00    +0.020 A 
ATOM      9  C   UNL     1      16.564  -5.062 -16.613  0.00  0.00    +0.015 A 
ATOM     10  C   UNL     1      14.317  -6.312 -14.049  0.00  0.00    +0.263 C 
ATOM     11  O   UNL     1      14.551  -6.761 -12.930  0.00  0.00    -0.267 OA
ENDROOT
BRANCH  10  12
ATOM     12  C   UNL     1      12.899  -6.153 -14.470  0.00  0.00    +0.040 A 
ATOM     13  C   UNL     1      11.969  -7.169 -14.209  0.00  0.00    -0.049 A 
ATOM     14  C   UNL     1      10.656  -7.047 -14.657  0.00  0.00    -0.061 A 
ATOM     15  C   UNL     1      10.259  -5.897 -15.337  0.00  0.00    -0.062 A 
ATOM     16  C   UNL     1      11.167  -4.856 -15.544  0.00  0.00    -0.061 A 
ATOM     17  C   UNL     1      12.487  -4.977 -15.105  0.00  0.00    -0.049 A 
ENDBRANCH  10  12
BRANCH   9  18
ATOM     18  C   UNL     1      16.887  -4.288 -17.854  0.00  0.00    +0.120 C 
BRANCH  18  19
ATOM     19  O   UNL     1      15.884  -4.463 -18.867  0.00  0.00    -0.456 OA
BRANCH  19  20
ATOM     20  C   UNL     1      15.641  -5.738 -19.248  0.00  0.00    +0.339 C 
ATOM     21  O   UNL     1      16.448  -6.513 -19.734  0.00  0.00    -0.245 OA
BRANCH  20  22
ATOM     22  C   UNL     1      14.214  -6.101 -19.016  0.00  0.00    +0.059 A 
ATOM     23  C   UNL     1      13.934  -7.224 -18.225  0.00  0.00    -0.048 A 
ATOM     24  C   UNL     1      12.614  -7.620 -18.000  0.00  0.00    -0.061 A 
ATOM     25  C   UNL     1      11.564  -6.891 -18.558  0.00  0.00    -0.062 A 
ATOM     26  C   UNL     1      11.833  -5.762 -19.331  0.00  0.00    -0.061 A 
ATOM     27  C   UNL     1      13.153  -5.366 -19.562  0.00  0.00    -0.048 A 
ENDBRANCH  20  22
ENDBRANCH  19  20
ENDBRANCH  18  19
ENDBRANCH   9  18
TORSDOF 5
ENDMDL
