MODEL 1
REMARK VINA RESULT:    -8.287      0.000      0.000
REMARK INTER + INTRA:         -11.299
REMARK INTER:                 -10.709
REMARK INTRA:                  -0.590
REMARK UNBOUND:                -0.590
REMARK  Name = 17f.sdf
REMARK  5 active torsions:
REMARK  status: ('A' for Active; 'I' for Inactive)
REMARK    1  A    between atoms: N_7  and  C_11
REMARK    2  A    between atoms: C_9  and  C_10
REMARK    3  A    between atoms: C_11  and  C_12
REMARK    4  A    between atoms: C_12  and  C_13
REMARK    5  A    between atoms: N_21  and  N_22
REMARK                            x       y       z     vdW  Elec       q    Type
REMARK                         _______ _______ _______ _____ _____    ______ ____
ROOT
ATOM      1  C   UNL     1      19.348  -7.201 -15.540  0.00  0.00    -0.061 A 
ATOM      2  C   UNL     1      18.704  -7.694 -14.410  0.00  0.00    -0.060 A 
ATOM      3  C   UNL     1      17.358  -7.401 -14.158  0.00  0.00    -0.038 A 
ATOM      4  C   UNL     1      16.666  -6.621 -15.097  0.00  0.00    +0.050 A 
ATOM      5  C   UNL     1      17.259  -6.230 -16.302  0.00  0.00    +0.009 A 
ATOM      6  C   UNL     1      18.634  -6.483 -16.500  0.00  0.00    -0.052 A 
ATOM      7  N   UNL     1      15.394  -6.080 -15.090  0.00  0.00    -0.338 N 
ATOM      8  C   UNL     1      15.099  -5.578 -16.334  0.00  0.00    +0.015 A 
ATOM      9  C   UNL     1      16.225  -5.690 -17.127  0.00  0.00    +0.020 A 
ENDROOT
BRANCH   9  10
ATOM     10  C   UNL     1      16.333  -5.385 -18.537  0.00  0.00    +0.055 C 
ATOM     11  N   UNL     1      15.281  -5.456 -19.291  0.00  0.00    -0.186 NA
BRANCH  11  12
ATOM     12  N   UNL     1      15.533  -5.270 -20.626  0.00  0.00    -0.191 N 
ATOM     13  C   UNL     1      14.518  -5.276 -21.550  0.00  0.00    +0.317 C 
ATOM     14  O   UNL     1      14.712  -5.240 -22.757  0.00  0.00    -0.251 OA
ATOM     15  N   UNL     1      13.278  -5.319 -21.005  0.00  0.00    -0.312 N 
ATOM     16  H   UNL     1      16.460  -5.130 -20.927  0.00  0.00    +0.000 HD
ATOM     17  H   UNL     1      13.172  -5.348 -20.026  0.00  0.00    +0.000 HD
ATOM     18  H   UNL     1      12.485  -5.321 -21.587  0.00  0.00    +0.000 HD
ENDBRANCH  11  12
ENDBRANCH   9  10
BRANCH   7  19
ATOM     19  C   UNL     1      14.574  -5.842 -13.902  0.00  0.00    +0.086 C 
BRANCH  19  20
ATOM     20  C   UNL     1      13.280  -6.622 -13.856  0.00  0.00    +0.183 C 
ATOM     21  O   UNL     1      13.124  -7.632 -13.180  0.00  0.00    -0.290 OA
BRANCH  20  22
ATOM     22  C   UNL     1      12.124  -6.115 -14.672  0.00  0.00    +0.019 A 
ATOM     23  C   UNL     1      11.102  -6.948 -15.147  0.00  0.00    -0.050 A 
ATOM     24  C   UNL     1      10.096  -6.431 -15.973  0.00  0.00    -0.047 A 
ATOM     25  C   UNL     1      10.105  -5.081 -16.322  0.00  0.00    +0.018 A 
ATOM     26  C   UNL     1      11.087  -4.232 -15.820  0.00  0.00    -0.047 A 
ATOM     27  C   UNL     1      12.092  -4.748 -14.993  0.00  0.00    -0.050 A 
ATOM     28 BR   UNL     1       8.796  -4.406 -17.505  0.00  0.00    -0.050 Br
ENDBRANCH  20  22
ENDBRANCH  19  20
ENDBRANCH   7  19
TORSDOF 5
ENDMDL
MODEL 2
REMARK VINA RESULT:    -7.812      2.708      5.599
REMARK INTER + INTRA:         -10.685
REMARK INTER:                  -9.884
REMARK INTRA:                  -0.801
REMARK UNBOUND:                -0.590
REMARK  Name = 17f.sdf
REMARK  5 active torsions:
REMARK  status: ('A' for Active; 'I' for Inactive)
REMARK    1  A    between atoms: N_7  and  C_11
REMARK    2  A    between atoms: C_9  and  C_10
REMARK    3  A    between atoms: C_11  and  C_12
REMARK    4  A    between atoms: C_12  and  C_13
REMARK    5  A    between atoms: N_21  and  N_22
REMARK                            x       y       z     vdW  Elec       q    Type
REMARK                         _______ _______ _______ _____ _____    ______ ____
ROOT
ATOM      1  C   UNL     1      19.312  -7.338 -14.645  0.00  0.00    -0.061 A 
ATOM      2  C   UNL     1      19.897  -6.335 -15.410  0.00  0.00    -0.060 A 
ATOM      3  C   UNL     1      19.114  -5.434 -16.143  0.00  0.00    -0.038 A 
ATOM      4  C   UNL     1      17.719  -5.553 -16.057  0.00  0.00    +0.050 A 
ATOM      5  C   UNL     1      17.114  -6.469 -15.189  0.00  0.00    +0.009 A 
ATOM      6  C   UNL     1      17.924  -7.406 -14.513  0.00  0.00    -0.052 A 
ATOM      7  N   UNL     1      16.694  -4.907 -16.724  0.00  0.00    -0.338 N 
ATOM      8  C   UNL     1      15.493  -5.215 -16.134  0.00  0.00    +0.015 A 
ATOM      9  C   UNL     1      15.721  -6.156 -15.148  0.00  0.00    +0.020 A 
ENDROOT
BRANCH   9  10
ATOM     10  C   UNL     1      14.757  -6.684 -14.206  0.00  0.00    +0.055 C 
ATOM     11  N   UNL     1      14.053  -7.724 -14.524  0.00  0.00    -0.186 NA
BRANCH  11  12
ATOM     12  N   UNL     1      13.089  -8.051 -13.604  0.00  0.00    -0.191 N 
ATOM     13  C   UNL     1      11.763  -7.786 -13.838  0.00  0.00    +0.317 C 
ATOM     14  O   UNL     1      10.890  -7.945 -12.996  0.00  0.00    -0.251 OA
ATOM     15  N   UNL     1      11.505  -7.337 -15.091  0.00  0.00    -0.312 N 
ATOM     16  H   UNL     1      13.353  -8.484 -12.760  0.00  0.00    +0.000 HD
ATOM     17  H   UNL     1      12.241  -7.223 -15.734  0.00  0.00    +0.000 HD
ATOM     18  H   UNL     1      10.581  -7.125 -15.356  0.00  0.00    +0.000 HD
ENDBRANCH  11  12
ENDBRANCH   9  10
BRANCH   7  19
ATOM     19  C   UNL     1      16.816  -4.205 -18.002  0.00  0.00    +0.086 C 
BRANCH  19  20
ATOM     20  C   UNL     1      16.588  -5.066 -19.223  0.00  0.00    +0.183 C 
ATOM     21  O   UNL     1      17.361  -5.947 -19.583  0.00  0.00    -0.290 OA
BRANCH  20  22
ATOM     22  C   UNL     1      15.336  -4.835 -20.023  0.00  0.00    +0.019 A 
ATOM     23  C   UNL     1      15.320  -4.105 -21.219  0.00  0.00    -0.050 A 
ATOM     24  C   UNL     1      14.108  -3.851 -21.875  0.00  0.00    -0.047 A 
ATOM     25  C   UNL     1      12.913  -4.331 -21.341  0.00  0.00    +0.018 A 
ATOM     26  C   UNL     1      12.919  -5.096 -20.179  0.00  0.00    -0.047 A 
ATOM     27  C   UNL     1      14.130  -5.352 -19.525  0.00  0.00    -0.050 A 
ATOM     28 BR   UNL     1      11.273  -3.914 -22.183  0.00  0.00    -0.050 Br
ENDBRANCH  20  22
ENDBRANCH  19  20
ENDBRANCH   7  19
TORSDOF 5
ENDMDL
MODEL 3
REMARK VINA RESULT:    -7.704      3.173      5.399
REMARK INTER + INTRA:         -10.545
REMARK INTER:                  -9.721
REMARK INTRA:                  -0.824
REMARK UNBOUND:                -0.590
REMARK  Name = 17f.sdf
REMARK  5 active torsions:
REMARK  status: ('A' for Active; 'I' for Inactive)
REMARK    1  A    between atoms: N_7  and  C_11
REMARK    2  A    between atoms: C_9  and  C_10
REMARK    3  A    between atoms: C_11  and  C_12
REMARK    4  A    between atoms: C_12  and  C_13
REMARK    5  A    between atoms: N_21  and  N_22
REMARK                            x       y       z     vdW  Elec       q    Type
REMARK                         _______ _______ _______ _____ _____    ______ ____
ROOT
ATOM      1  C   UNL     1      15.137  -9.135 -12.816  0.00  0.00    -0.061 A 
ATOM      2  C   UNL     1      16.444  -8.670 -12.706  0.00  0.00    -0.060 A 
ATOM      3  C   UNL     1      16.875  -7.548 -13.423  0.00  0.00    -0.038 A 
ATOM      4  C   UNL     1      15.941  -6.883 -14.233  0.00  0.00    +0.050 A 
ATOM      5  C   UNL     1      14.593  -7.256 -14.251  0.00  0.00    +0.009 A 
ATOM      6  C   UNL     1      14.200  -8.429 -13.572  0.00  0.00    -0.052 A 
ATOM      7  N   UNL     1      16.073  -5.837 -15.126  0.00  0.00    -0.338 N 
ATOM      8  C   UNL     1      14.829  -5.400 -15.511  0.00  0.00    +0.015 A 
ATOM      9  C   UNL     1      13.882  -6.236 -14.954  0.00  0.00    +0.020 A 
ENDROOT
BRANCH   9  10
ATOM     10  C   UNL     1      12.444  -6.084 -15.008  0.00  0.00    +0.055 C 
ATOM     11  N   UNL     1      11.864  -5.864 -16.147  0.00  0.00    -0.186 NA
BRANCH  11  12
ATOM     12  N   UNL     1      10.519  -5.611 -16.052  0.00  0.00    -0.191 N 
ATOM     13  C   UNL     1       9.948  -4.548 -16.704  0.00  0.00    +0.317 C 
ATOM     14  O   UNL     1       8.780  -4.215 -16.546  0.00  0.00    -0.251 OA
ATOM     15  N   UNL     1      10.790  -3.901 -17.546  0.00  0.00    -0.312 N 
ATOM     16  H   UNL     1       9.954  -6.204 -15.506  0.00  0.00    +0.000 HD
ATOM     17  H   UNL     1      11.722  -4.205 -17.639  0.00  0.00    +0.000 HD
ATOM     18  H   UNL     1      10.469  -3.128 -18.064  0.00  0.00    +0.000 HD
ENDBRANCH  11  12
ENDBRANCH   9  10
BRANCH   7  19
ATOM     19  C   UNL     1      17.319  -5.413 -15.767  0.00  0.00    +0.086 C 
BRANCH  19  20
ATOM     20  C   UNL     1      17.552  -5.987 -17.146  0.00  0.00    +0.183 C 
ATOM     21  O   UNL     1      18.300  -6.932 -17.367  0.00  0.00    -0.290 OA
BRANCH  20  22
ATOM     22  C   UNL     1      16.809  -5.370 -18.298  0.00  0.00    +0.019 A 
ATOM     23  C   UNL     1      15.920  -6.092 -19.105  0.00  0.00    -0.050 A 
ATOM     24  C   UNL     1      15.321  -5.484 -20.216  0.00  0.00    -0.047 A 
ATOM     25  C   UNL     1      15.603  -4.153 -20.518  0.00  0.00    +0.018 A 
ATOM     26  C   UNL     1      16.447  -3.410 -19.699  0.00  0.00    -0.047 A 
ATOM     27  C   UNL     1      17.044  -4.017 -18.588  0.00  0.00    -0.050 A 
ATOM     28 BR   UNL     1      14.860  -3.361 -22.065  0.00  0.00    -0.050 Br
ENDBRANCH  20  22
ENDBRANCH  19  20
ENDBRANCH   7  19
TORSDOF 5
ENDMDL
