MODEL 1
REMARK VINA RESULT:    -8.156      0.000      0.000
REMARK INTER + INTRA:         -11.231
REMARK INTER:                 -10.540
REMARK INTRA:                  -0.691
REMARK UNBOUND:                -0.691
REMARK  Name = 17i.sdf
REMARK  6 active torsions:
REMARK  status: ('A' for Active; 'I' for Inactive)
REMARK    1  A    between atoms: N_7  and  C_16
REMARK    2  A    between atoms: C_9  and  C_10
REMARK    3  A    between atoms: N_11  and  N_12
REMARK    4  A    between atoms: C_16  and  C_17
REMARK    5  A    between atoms: C_19  and  O_23
REMARK    6  A    between atoms: O_23  and  C_24
REMARK                            x       y       z     vdW  Elec       q    Type
REMARK                         _______ _______ _______ _____ _____    ______ ____
ROOT
ATOM      1  C   UNL     1      19.371  -7.336 -15.686  0.00  0.00    -0.061 A 
ATOM      2  C   UNL     1      18.735  -7.535 -14.465  0.00  0.00    -0.060 A 
ATOM      3  C   UNL     1      17.398  -7.175 -14.284  0.00  0.00    -0.038 A 
ATOM      4  C   UNL     1      16.710  -6.604 -15.368  0.00  0.00    +0.050 A 
ATOM      5  C   UNL     1      17.315  -6.436 -16.619  0.00  0.00    +0.009 A 
ATOM      6  C   UNL     1      18.670  -6.801 -16.772  0.00  0.00    -0.052 A 
ATOM      7  N   UNL     1      15.429  -6.093 -15.466  0.00  0.00    -0.342 N 
ATOM      8  C   UNL     1      15.201  -5.664 -16.750  0.00  0.00    +0.015 A 
ATOM      9  C   UNL     1      16.333  -5.894 -17.506  0.00  0.00    +0.020 A 
ENDROOT
BRANCH   9  10
ATOM     10  C   UNL     1      16.474  -5.613 -18.918  0.00  0.00    +0.055 C 
ATOM     11  N   UNL     1      15.411  -5.368 -19.612  0.00  0.00    -0.186 NA
BRANCH  11  12
ATOM     12  N   UNL     1      15.623  -5.143 -20.948  0.00  0.00    -0.191 N 
ATOM     13  C   UNL     1      14.587  -5.153 -21.847  0.00  0.00    +0.317 C 
ATOM     14  O   UNL     1      14.747  -5.022 -23.056  0.00  0.00    -0.251 OA
ATOM     15  N   UNL     1      13.365  -5.317 -21.285  0.00  0.00    -0.312 N 
ATOM     16  H   UNL     1      16.538  -4.970 -21.268  0.00  0.00    +0.000 HD
ATOM     17  H   UNL     1      13.282  -5.419 -20.309  0.00  0.00    +0.000 HD
ATOM     18  H   UNL     1      12.561  -5.334 -21.852  0.00  0.00    +0.000 HD
ENDBRANCH  11  12
ENDBRANCH   9  10
BRANCH   7  19
ATOM     19  C   UNL     1      14.532  -5.812 -14.348  0.00  0.00    +0.048 C 
BRANCH  19  20
ATOM     20  C   UNL     1      13.151  -6.409 -14.474  0.00  0.00    -0.024 A 
ATOM     21  C   UNL     1      12.108  -5.712 -15.112  0.00  0.00    -0.015 A 
ATOM     22  C   UNL     1      10.787  -6.164 -15.034  0.00  0.00    +0.120 A 
ATOM     23  C   UNL     1      10.511  -7.352 -14.357  0.00  0.00    -0.020 A 
ATOM     24  C   UNL     1      11.536  -8.078 -13.754  0.00  0.00    -0.058 A 
ATOM     25  C   UNL     1      12.847  -7.605 -13.804  0.00  0.00    -0.057 A 
BRANCH  22  26
ATOM     26  O   UNL     1       9.691  -5.521 -15.540  0.00  0.00    -0.495 OA
ATOM     27  C   UNL     1       9.840  -4.888 -16.805  0.00  0.00    +0.079 C 
ENDBRANCH  22  26
ENDBRANCH  19  20
ENDBRANCH   7  19
TORSDOF 5
ENDMDL
MODEL 2
REMARK VINA RESULT:    -7.827      2.537      5.116
REMARK INTER + INTRA:         -10.806
REMARK INTER:                 -10.068
REMARK INTRA:                  -0.738
REMARK UNBOUND:                -0.691
REMARK  Name = 17i.sdf
REMARK  6 active torsions:
REMARK  status: ('A' for Active; 'I' for Inactive)
REMARK    1  A    between atoms: N_7  and  C_16
REMARK    2  A    between atoms: C_9  and  C_10
REMARK    3  A    between atoms: N_11  and  N_12
REMARK    4  A    between atoms: C_16  and  C_17
REMARK    5  A    between atoms: C_19  and  O_23
REMARK    6  A    between atoms: O_23  and  C_24
REMARK                            x       y       z     vdW  Elec       q    Type
REMARK                         _______ _______ _______ _____ _____    ______ ____
ROOT
ATOM      1  C   UNL     1      10.434  -7.343 -17.270  0.00  0.00    -0.061 A 
ATOM      2  C   UNL     1      10.365  -6.953 -15.936  0.00  0.00    -0.060 A 
ATOM      3  C   UNL     1      11.471  -6.397 -15.290  0.00  0.00    -0.038 A 
ATOM      4  C   UNL     1      12.660  -6.242 -16.023  0.00  0.00    +0.050 A 
ATOM      5  C   UNL     1      12.740  -6.583 -17.379  0.00  0.00    +0.009 A 
ATOM      6  C   UNL     1      11.608  -7.150 -18.004  0.00  0.00    -0.052 A 
ATOM      7  N   UNL     1      13.912  -5.797 -15.643  0.00  0.00    -0.342 N 
ATOM      8  C   UNL     1      14.751  -5.799 -16.729  0.00  0.00    +0.015 A 
ATOM      9  C   UNL     1      14.052  -6.244 -17.833  0.00  0.00    +0.020 A 
ENDROOT
BRANCH   9  10
ATOM     10  C   UNL     1      14.580  -6.352 -19.176  0.00  0.00    +0.055 C 
ATOM     11  N   UNL     1      14.135  -5.548 -20.086  0.00  0.00    -0.186 NA
BRANCH  11  12
ATOM     12  N   UNL     1      14.661  -5.733 -21.339  0.00  0.00    -0.191 N 
ATOM     13  C   UNL     1      14.530  -4.779 -22.316  0.00  0.00    +0.317 C 
ATOM     14  O   UNL     1      14.929  -4.937 -23.465  0.00  0.00    -0.251 OA
ATOM     15  N   UNL     1      13.926  -3.639 -21.902  0.00  0.00    -0.312 N 
ATOM     16  H   UNL     1      15.142  -6.568 -21.541  0.00  0.00    +0.000 HD
ATOM     17  H   UNL     1      13.621  -3.554 -20.970  0.00  0.00    +0.000 HD
ATOM     18  H   UNL     1      13.791  -2.897 -22.534  0.00  0.00    +0.000 HD
ENDBRANCH  11  12
ENDBRANCH   9  10
BRANCH   7  19
ATOM     19  C   UNL     1      14.366  -5.591 -14.270  0.00  0.00    +0.048 C 
BRANCH  19  20
ATOM     20  C   UNL     1      15.267  -6.675 -13.728  0.00  0.00    -0.024 A 
ATOM     21  C   UNL     1      16.628  -6.737 -14.079  0.00  0.00    -0.015 A 
ATOM     22  C   UNL     1      17.403  -7.856 -13.759  0.00  0.00    +0.120 A 
ATOM     23  C   UNL     1      16.827  -8.901 -13.035  0.00  0.00    -0.020 A 
ATOM     24  C   UNL     1      15.492  -8.838 -12.643  0.00  0.00    -0.058 A 
ATOM     25  C   UNL     1      14.713  -7.736 -12.995  0.00  0.00    -0.057 A 
BRANCH  22  26
ATOM     26  O   UNL     1      18.705  -8.059 -14.124  0.00  0.00    -0.495 OA
ATOM     27  C   UNL     1      19.155  -7.400 -15.302  0.00  0.00    +0.079 C 
ENDBRANCH  22  26
ENDBRANCH  19  20
ENDBRANCH   7  19
TORSDOF 5
ENDMDL
MODEL 3
REMARK VINA RESULT:    -7.506      2.380      5.767
REMARK INTER + INTRA:         -10.391
REMARK INTER:                  -9.491
REMARK INTRA:                  -0.900
REMARK UNBOUND:                -0.691
REMARK  Name = 17i.sdf
REMARK  6 active torsions:
REMARK  status: ('A' for Active; 'I' for Inactive)
REMARK    1  A    between atoms: N_7  and  C_16
REMARK    2  A    between atoms: C_9  and  C_10
REMARK    3  A    between atoms: N_11  and  N_12
REMARK    4  A    between atoms: C_16  and  C_17
REMARK    5  A    between atoms: C_19  and  O_23
REMARK    6  A    between atoms: O_23  and  C_24
REMARK                            x       y       z     vdW  Elec       q    Type
REMARK                         _______ _______ _______ _____ _____    ______ ____
ROOT
ATOM      1  C   UNL     1      15.055  -9.243 -12.796  0.00  0.00    -0.061 A 
ATOM      2  C   UNL     1      16.421  -8.977 -12.792  0.00  0.00    -0.060 A 
ATOM      3  C   UNL     1      16.933  -7.833 -13.410  0.00  0.00    -0.038 A 
ATOM      4  C   UNL     1      16.032  -6.957 -14.038  0.00  0.00    +0.050 A 
ATOM      5  C   UNL     1      14.649  -7.180 -14.015  0.00  0.00    +0.009 A 
ATOM      6  C   UNL     1      14.160  -8.348 -13.390  0.00  0.00    -0.052 A 
ATOM      7  N   UNL     1      16.244  -5.809 -14.777  0.00  0.00    -0.342 N 
ATOM      8  C   UNL     1      15.038  -5.281 -15.166  0.00  0.00    +0.015 A 
ATOM      9  C   UNL     1      14.023  -6.082 -14.682  0.00  0.00    +0.020 A 
ENDROOT
BRANCH   9  10
ATOM     10  C   UNL     1      12.607  -5.838 -14.849  0.00  0.00    +0.055 C 
ATOM     11  N   UNL     1      12.086  -5.977 -16.024  0.00  0.00    -0.186 NA
BRANCH  11  12
ATOM     12  N   UNL     1      10.746  -5.698 -16.108  0.00  0.00    -0.191 N 
ATOM     13  C   UNL     1      10.281  -4.649 -16.861  0.00  0.00    +0.317 C 
ATOM     14  O   UNL     1       9.097  -4.330 -16.906  0.00  0.00    -0.251 OA
ATOM     15  N   UNL     1      11.241  -3.997 -17.558  0.00  0.00    -0.312 N 
ATOM     16  H   UNL     1      10.105  -6.261 -15.617  0.00  0.00    +0.000 HD
ATOM     17  H   UNL     1      12.180  -4.287 -17.493  0.00  0.00    +0.000 HD
ATOM     18  H   UNL     1      11.001  -3.233 -18.130  0.00  0.00    +0.000 HD
ENDBRANCH  11  12
ENDBRANCH   9  10
BRANCH   7  19
ATOM     19  C   UNL     1      17.532  -5.346 -15.288  0.00  0.00    +0.048 C 
BRANCH  19  20
ATOM     20  C   UNL     1      17.864  -5.803 -16.688  0.00  0.00    -0.024 A 
ATOM     21  C   UNL     1      17.307  -5.171 -17.815  0.00  0.00    -0.015 A 
ATOM     22  C   UNL     1      17.436  -5.729 -19.090  0.00  0.00    +0.120 A 
ATOM     23  C   UNL     1      18.174  -6.903 -19.250  0.00  0.00    -0.020 A 
ATOM     24  C   UNL     1      18.767  -7.521 -18.152  0.00  0.00    -0.058 A 
ATOM     25  C   UNL     1      18.606  -6.981 -16.876  0.00  0.00    -0.057 A 
BRANCH  22  26
ATOM     26  O   UNL     1      16.865  -5.248 -20.236  0.00  0.00    -0.495 OA
ATOM     27  C   UNL     1      15.755  -4.371 -20.085  0.00  0.00    +0.079 C 
ENDBRANCH  22  26
ENDBRANCH  19  20
ENDBRANCH   7  19
TORSDOF 5
ENDMDL
