MODEL 1
REMARK VINA RESULT:    -8.265      0.000      0.000
REMARK INTER + INTRA:         -10.968
REMARK INTER:                 -10.680
REMARK INTRA:                  -0.288
REMARK UNBOUND:                -0.288
REMARK  Name = 18a.sdf
REMARK  5 active torsions:
REMARK  status: ('A' for Active; 'I' for Inactive)
REMARK    1  A    between atoms: N_7  and  C_12
REMARK    2  A    between atoms: C_9  and  C_10
REMARK    3  A    between atoms: N_11  and  N_19
REMARK    4  A    between atoms: C_12  and  C_13
REMARK    5  A    between atoms: C_20  and  C_22
REMARK                            x       y       z     vdW  Elec       q    Type
REMARK                         _______ _______ _______ _____ _____    ______ ____
ROOT
ATOM      1  C   UNL     1      19.453  -6.979 -15.260  0.00  0.00    -0.061 A 
ATOM      2  C   UNL     1      18.805  -7.614 -14.208  0.00  0.00    -0.060 A 
ATOM      3  C   UNL     1      17.409  -7.606 -14.111  0.00  0.00    -0.038 A 
ATOM      4  C   UNL     1      16.672  -6.937 -15.104  0.00  0.00    +0.050 A 
ATOM      5  C   UNL     1      17.305  -6.339 -16.203  0.00  0.00    +0.009 A 
ATOM      6  C   UNL     1      18.715  -6.353 -16.268  0.00  0.00    -0.052 A 
ATOM      7  N   UNL     1      15.315  -6.700 -15.243  0.00  0.00    -0.342 N 
ATOM      8  C   UNL     1      15.078  -6.056 -16.433  0.00  0.00    +0.015 A 
ATOM      9  C   UNL     1      16.285  -5.828 -17.064  0.00  0.00    +0.020 A 
ENDROOT
BRANCH   9  10
ATOM     10  C   UNL     1      16.470  -5.186 -18.350  0.00  0.00    +0.055 C 
ATOM     11  N   UNL     1      15.903  -5.684 -19.404  0.00  0.00    -0.187 NA
BRANCH  11  12
ATOM     12  N   UNL     1      16.140  -5.024 -20.578  0.00  0.00    -0.203 N 
ATOM     13  C   UNL     1      15.130  -4.261 -21.148  0.00  0.00    +0.263 C 
ATOM     14  O   UNL     1      14.011  -4.107 -20.671  0.00  0.00    -0.268 OA
ATOM     15  H   UNL     1      17.020  -5.090 -21.016  0.00  0.00    +0.000 HD
BRANCH  13  16
ATOM     16  C   UNL     1      15.482  -3.558 -22.417  0.00  0.00    +0.038 A 
ATOM     17  C   UNL     1      15.419  -4.189 -23.668  0.00  0.00    -0.050 A 
ATOM     18  C   UNL     1      15.755  -3.472 -24.827  0.00  0.00    -0.061 A 
ATOM     19  C   UNL     1      16.143  -2.135 -24.738  0.00  0.00    -0.062 A 
ATOM     20  C   UNL     1      16.187  -1.501 -23.498  0.00  0.00    -0.061 A 
ATOM     21  C   UNL     1      15.853  -2.211 -22.342  0.00  0.00    -0.050 A 
ENDBRANCH  13  16
ENDBRANCH  11  12
ENDBRANCH   9  10
BRANCH   7  22
ATOM     22  C   UNL     1      14.275  -6.960 -14.246  0.00  0.00    +0.048 C 
BRANCH  22  23
ATOM     23  C   UNL     1      12.937  -6.408 -14.673  0.00  0.00    -0.028 A 
ATOM     24  C   UNL     1      11.857  -7.269 -14.912  0.00  0.00    -0.056 A 
ATOM     25  C   UNL     1      10.670  -6.782 -15.461  0.00  0.00    -0.047 A 
ATOM     26  C   UNL     1      10.549  -5.427 -15.754  0.00  0.00    +0.018 A 
ATOM     27  C   UNL     1      11.580  -4.544 -15.446  0.00  0.00    -0.047 A 
ATOM     28  C   UNL     1      12.771  -5.033 -14.904  0.00  0.00    -0.056 A 
ATOM     29 BR   UNL     1       8.997  -4.793 -16.627  0.00  0.00    -0.050 Br
ENDBRANCH  22  23
ENDBRANCH   7  22
TORSDOF 5
ENDMDL
MODEL 2
REMARK VINA RESULT:    -7.845      1.287      1.604
REMARK INTER + INTRA:         -10.425
REMARK INTER:                  -9.668
REMARK INTRA:                  -0.757
REMARK UNBOUND:                -0.288
REMARK  Name = 18a.sdf
REMARK  5 active torsions:
REMARK  status: ('A' for Active; 'I' for Inactive)
REMARK    1  A    between atoms: N_7  and  C_12
REMARK    2  A    between atoms: C_9  and  C_10
REMARK    3  A    between atoms: N_11  and  N_19
REMARK    4  A    between atoms: C_12  and  C_13
REMARK    5  A    between atoms: C_20  and  C_22
REMARK                            x       y       z     vdW  Elec       q    Type
REMARK                         _______ _______ _______ _____ _____    ______ ____
ROOT
ATOM      1  C   UNL     1      17.871  -5.691 -14.695  0.00  0.00    -0.061 A 
ATOM      2  C   UNL     1      17.070  -6.536 -13.939  0.00  0.00    -0.060 A 
ATOM      3  C   UNL     1      15.848  -7.007 -14.435  0.00  0.00    -0.038 A 
ATOM      4  C   UNL     1      15.447  -6.604 -15.721  0.00  0.00    +0.050 A 
ATOM      5  C   UNL     1      16.268  -5.798 -16.521  0.00  0.00    +0.009 A 
ATOM      6  C   UNL     1      17.490  -5.328 -15.990  0.00  0.00    -0.052 A 
ATOM      7  N   UNL     1      14.289  -6.841 -16.442  0.00  0.00    -0.342 N 
ATOM      8  C   UNL     1      14.404  -6.285 -17.694  0.00  0.00    +0.015 A 
ATOM      9  C   UNL     1      15.622  -5.643 -17.787  0.00  0.00    +0.020 A 
ENDROOT
BRANCH   9  10
ATOM     10  C   UNL     1      16.134  -4.943 -18.947  0.00  0.00    +0.055 C 
ATOM     11  N   UNL     1      15.443  -4.927 -20.044  0.00  0.00    -0.187 NA
BRANCH  11  12
ATOM     12  N   UNL     1      16.005  -4.255 -21.094  0.00  0.00    -0.203 N 
ATOM     13  C   UNL     1      15.214  -3.421 -21.872  0.00  0.00    +0.263 C 
ATOM     14  O   UNL     1      14.019  -3.213 -21.689  0.00  0.00    -0.268 OA
ATOM     15  H   UNL     1      16.963  -4.362 -21.297  0.00  0.00    +0.000 HD
BRANCH  13  16
ATOM     16  C   UNL     1      15.912  -2.710 -22.984  0.00  0.00    +0.038 A 
ATOM     17  C   UNL     1      15.909  -3.190 -24.302  0.00  0.00    -0.050 A 
ATOM     18  C   UNL     1      16.578  -2.472 -25.305  0.00  0.00    -0.061 A 
ATOM     19  C   UNL     1      17.238  -1.283 -24.997  0.00  0.00    -0.062 A 
ATOM     20  C   UNL     1      17.225  -0.794 -23.692  0.00  0.00    -0.061 A 
ATOM     21  C   UNL     1      16.560  -1.506 -22.689  0.00  0.00    -0.050 A 
ENDBRANCH  13  16
ENDBRANCH  11  12
ENDBRANCH   9  10
BRANCH   7  22
ATOM     22  C   UNL     1      13.061  -7.465 -15.946  0.00  0.00    +0.048 C 
BRANCH  22  23
ATOM     23  C   UNL     1      11.833  -6.691 -16.356  0.00  0.00    -0.028 A 
ATOM     24  C   UNL     1      11.102  -7.067 -17.492  0.00  0.00    -0.056 A 
ATOM     25  C   UNL     1      10.065  -6.263 -17.966  0.00  0.00    -0.047 A 
ATOM     26  C   UNL     1       9.739  -5.089 -17.294  0.00  0.00    +0.018 A 
ATOM     27  C   UNL     1      10.397  -4.743 -16.118  0.00  0.00    -0.047 A 
ATOM     28  C   UNL     1      11.441  -5.543 -15.648  0.00  0.00    -0.056 A 
ATOM     29 BR   UNL     1       8.430  -3.930 -18.015  0.00  0.00    -0.050 Br
ENDBRANCH  22  23
ENDBRANCH   7  22
TORSDOF 5
ENDMDL
MODEL 3
REMARK VINA RESULT:    -7.774      3.785      8.265
REMARK INTER + INTRA:         -10.333
REMARK INTER:                  -9.398
REMARK INTRA:                  -0.935
REMARK UNBOUND:                -0.288
REMARK  Name = 18a.sdf
REMARK  5 active torsions:
REMARK  status: ('A' for Active; 'I' for Inactive)
REMARK    1  A    between atoms: N_7  and  C_12
REMARK    2  A    between atoms: C_9  and  C_10
REMARK    3  A    between atoms: N_11  and  N_19
REMARK    4  A    between atoms: C_12  and  C_13
REMARK    5  A    between atoms: C_20  and  C_22
REMARK                            x       y       z     vdW  Elec       q    Type
REMARK                         _______ _______ _______ _____ _____    ______ ____
ROOT
ATOM      1  C   UNL     1      15.177  -3.588 -22.019  0.00  0.00    -0.061 A 
ATOM      2  C   UNL     1      14.163  -3.239 -22.902  0.00  0.00    -0.060 A 
ATOM      3  C   UNL     1      12.840  -3.634 -22.673  0.00  0.00    -0.038 A 
ATOM      4  C   UNL     1      12.557  -4.395 -21.525  0.00  0.00    +0.050 A 
ATOM      5  C   UNL     1      13.556  -4.708 -20.593  0.00  0.00    +0.009 A 
ATOM      6  C   UNL     1      14.884  -4.307 -20.857  0.00  0.00    -0.052 A 
ATOM      7  N   UNL     1      11.385  -4.978 -21.071  0.00  0.00    -0.342 N 
ATOM      8  C   UNL     1      11.606  -5.564 -19.848  0.00  0.00    +0.015 A 
ATOM      9  C   UNL     1      12.935  -5.405 -19.511  0.00  0.00    +0.020 A 
ENDROOT
BRANCH   9  10
ATOM     10  C   UNL     1      13.569  -5.866 -18.293  0.00  0.00    +0.055 C 
ATOM     11  N   UNL     1      12.841  -6.304 -17.314  0.00  0.00    -0.187 NA
BRANCH  11  12
ATOM     12  N   UNL     1      13.519  -6.708 -16.198  0.00  0.00    -0.203 N 
ATOM     13  C   UNL     1      13.332  -6.028 -15.003  0.00  0.00    +0.263 C 
ATOM     14  O   UNL     1      12.578  -5.074 -14.846  0.00  0.00    -0.268 OA
ATOM     15  H   UNL     1      14.135  -7.476 -16.242  0.00  0.00    +0.000 HD
BRANCH  13  16
ATOM     16  C   UNL     1      14.096  -6.549 -13.830  0.00  0.00    +0.038 A 
ATOM     17  C   UNL     1      14.494  -7.890 -13.727  0.00  0.00    -0.050 A 
ATOM     18  C   UNL     1      15.216  -8.317 -12.603  0.00  0.00    -0.061 A 
ATOM     19  C   UNL     1      15.544  -7.413 -11.593  0.00  0.00    -0.062 A 
ATOM     20  C   UNL     1      15.167  -6.076 -11.703  0.00  0.00    -0.061 A 
ATOM     21  C   UNL     1      14.447  -5.646 -12.821  0.00  0.00    -0.050 A 
ENDBRANCH  13  16
ENDBRANCH  11  12
ENDBRANCH   9  10
BRANCH   7  22
ATOM     22  C   UNL     1      10.123  -5.092 -21.804  0.00  0.00    +0.048 C 
BRANCH  22  23
ATOM     23  C   UNL     1       9.020  -4.299 -21.149  0.00  0.00    -0.028 A 
ATOM     24  C   UNL     1       9.043  -2.898 -21.169  0.00  0.00    -0.056 A 
ATOM     25  C   UNL     1       8.117  -2.161 -20.429  0.00  0.00    -0.047 A 
ATOM     26  C   UNL     1       7.148  -2.823 -19.681  0.00  0.00    +0.018 A 
ATOM     27  C   UNL     1       7.057  -4.212 -19.716  0.00  0.00    -0.047 A 
ATOM     28  C   UNL     1       7.990  -4.949 -20.449  0.00  0.00    -0.056 A 
ATOM     29 BR   UNL     1       5.984  -1.832 -18.570  0.00  0.00    -0.050 Br
ENDBRANCH  22  23
ENDBRANCH   7  22
TORSDOF 5
ENDMDL
