MODEL 1
REMARK VINA RESULT:    -6.990      0.000      0.000
REMARK INTER + INTRA:          -8.847
REMARK INTER:                  -8.215
REMARK INTRA:                  -0.632
REMARK UNBOUND:                -0.632
REMARK  Name = 1c.sdf
REMARK  3 active torsions:
REMARK  status: ('A' for Active; 'I' for Inactive)
REMARK    1  A    between atoms: N_7  and  C_12
REMARK    2  A    between atoms: C_9  and  C_10
REMARK    3  A    between atoms: C_12  and  C_13
REMARK                            x       y       z     vdW  Elec       q    Type
REMARK                         _______ _______ _______ _____ _____    ______ ____
ROOT
ATOM      1  C   UNL     1      17.742  -5.974 -15.496  0.00  0.00    -0.061 A 
ATOM      2  C   UNL     1      16.925  -6.155 -16.608  0.00  0.00    -0.060 A 
ATOM      3  C   UNL     1      15.550  -6.397 -16.471  0.00  0.00    -0.038 A 
ATOM      4  C   UNL     1      15.008  -6.488 -15.177  0.00  0.00    +0.050 A 
ATOM      5  C   UNL     1      15.805  -6.246 -14.046  0.00  0.00    +0.010 A 
ATOM      6  C   UNL     1      17.185  -5.992 -14.215  0.00  0.00    -0.052 A 
ATOM      7  N   UNL     1      13.739  -6.813 -14.712  0.00  0.00    -0.342 N 
ATOM      8  C   UNL     1      13.706  -6.674 -13.344  0.00  0.00    +0.016 A 
ATOM      9  C   UNL     1      14.964  -6.318 -12.904  0.00  0.00    +0.039 A 
ENDROOT
BRANCH   9  10
ATOM     10  C   UNL     1      15.330  -6.083 -11.517  0.00  0.00    +0.152 C 
ATOM     11  O   UNL     1      14.606  -6.349 -10.567  0.00  0.00    -0.296 OA
ENDBRANCH   9  10
BRANCH   7  12
ATOM     12  C   UNL     1      12.621  -7.385 -15.470  0.00  0.00    +0.048 C 
BRANCH  12  13
ATOM     13  C   UNL     1      11.824  -6.329 -16.199  0.00  0.00    -0.028 A 
ATOM     14  C   UNL     1      11.981  -6.164 -17.581  0.00  0.00    -0.055 A 
ATOM     15  C   UNL     1      11.424  -5.061 -18.231  0.00  0.00    -0.043 A 
ATOM     16  C   UNL     1      10.672  -4.139 -17.507  0.00  0.00    +0.041 A 
ATOM     17  C   UNL     1      10.407  -4.352 -16.156  0.00  0.00    -0.043 A 
ATOM     18  C   UNL     1      10.980  -5.448 -15.503  0.00  0.00    -0.055 A 
ATOM     19 CL   UNL     1      10.120  -2.701 -18.272  0.00  0.00    -0.084 Cl
ENDBRANCH  12  13
ENDBRANCH   7  12
TORSDOF 3
ENDMDL
MODEL 2
REMARK VINA RESULT:    -6.751      3.020      4.249
REMARK INTER + INTRA:          -8.567
REMARK INTER:                  -8.260
REMARK INTRA:                  -0.307
REMARK UNBOUND:                -0.632
REMARK  Name = 1c.sdf
REMARK  3 active torsions:
REMARK  status: ('A' for Active; 'I' for Inactive)
REMARK    1  A    between atoms: N_7  and  C_12
REMARK    2  A    between atoms: C_9  and  C_10
REMARK    3  A    between atoms: C_12  and  C_13
REMARK                            x       y       z     vdW  Elec       q    Type
REMARK                         _______ _______ _______ _____ _____    ______ ____
ROOT
ATOM      1  C   UNL     1      19.396  -7.593 -15.923  0.00  0.00    -0.061 A 
ATOM      2  C   UNL     1      18.865  -7.724 -14.644  0.00  0.00    -0.060 A 
ATOM      3  C   UNL     1      17.593  -7.224 -14.328  0.00  0.00    -0.038 A 
ATOM      4  C   UNL     1      16.866  -6.553 -15.327  0.00  0.00    +0.050 A 
ATOM      5  C   UNL     1      17.360  -6.467 -16.639  0.00  0.00    +0.010 A 
ATOM      6  C   UNL     1      18.640  -6.990 -16.930  0.00  0.00    -0.052 A 
ATOM      7  N   UNL     1      15.656  -5.869 -15.307  0.00  0.00    -0.342 N 
ATOM      8  C   UNL     1      15.343  -5.461 -16.584  0.00  0.00    +0.016 A 
ATOM      9  C   UNL     1      16.371  -5.822 -17.429  0.00  0.00    +0.039 A 
ENDROOT
BRANCH   9  10
ATOM     10  C   UNL     1      16.411  -5.560 -18.858  0.00  0.00    +0.152 C 
ATOM     11  O   UNL     1      17.107  -4.694 -19.372  0.00  0.00    -0.296 OA
ENDBRANCH   9  10
BRANCH   7  12
ATOM     12  C   UNL     1      14.872  -5.459 -14.138  0.00  0.00    +0.048 C 
BRANCH  12  13
ATOM     13  C   UNL     1      13.421  -5.860 -14.252  0.00  0.00    -0.028 A 
ATOM     14  C   UNL     1      12.988  -7.082 -13.721  0.00  0.00    -0.055 A 
ATOM     15  C   UNL     1      11.710  -7.566 -14.006  0.00  0.00    -0.043 A 
ATOM     16  C   UNL     1      10.843  -6.810 -14.791  0.00  0.00    +0.041 A 
ATOM     17  C   UNL     1      11.215  -5.541 -15.228  0.00  0.00    -0.043 A 
ATOM     18  C   UNL     1      12.501  -5.064 -14.956  0.00  0.00    -0.055 A 
ATOM     19 CL   UNL     1       9.331  -7.473 -15.273  0.00  0.00    -0.084 Cl
ENDBRANCH  12  13
ENDBRANCH   7  12
TORSDOF 3
ENDMDL
MODEL 3
REMARK VINA RESULT:    -6.735      3.853      5.341
REMARK INTER + INTRA:          -8.548
REMARK INTER:                  -8.441
REMARK INTRA:                  -0.107
REMARK UNBOUND:                -0.632
REMARK  Name = 1c.sdf
REMARK  3 active torsions:
REMARK  status: ('A' for Active; 'I' for Inactive)
REMARK    1  A    between atoms: N_7  and  C_12
REMARK    2  A    between atoms: C_9  and  C_10
REMARK    3  A    between atoms: C_12  and  C_13
REMARK                            x       y       z     vdW  Elec       q    Type
REMARK                         _______ _______ _______ _____ _____    ______ ____
ROOT
ATOM      1  C   UNL     1      18.736  -5.500 -16.468  0.00  0.00    -0.061 A 
ATOM      2  C   UNL     1      18.128  -6.373 -15.572  0.00  0.00    -0.060 A 
ATOM      3  C   UNL     1      16.820  -6.836 -15.778  0.00  0.00    -0.038 A 
ATOM      4  C   UNL     1      16.112  -6.374 -16.901  0.00  0.00    +0.050 A 
ATOM      5  C   UNL     1      16.731  -5.543 -17.849  0.00  0.00    +0.010 A 
ATOM      6  C   UNL     1      18.054  -5.102 -17.620  0.00  0.00    -0.052 A 
ATOM      7  N   UNL     1      14.800  -6.556 -17.322  0.00  0.00    -0.342 N 
ATOM      8  C   UNL     1      14.627  -5.953 -18.547  0.00  0.00    +0.016 A 
ATOM      9  C   UNL     1      15.803  -5.326 -18.902  0.00  0.00    +0.039 A 
ENDROOT
BRANCH   9  10
ATOM     10  C   UNL     1      16.014  -4.576 -20.128  0.00  0.00    +0.152 C 
ATOM     11  O   UNL     1      16.387  -3.411 -20.158  0.00  0.00    -0.296 OA
ENDBRANCH   9  10
BRANCH   7  12
ATOM     12  C   UNL     1      13.682  -7.131 -16.566  0.00  0.00    +0.048 C 
BRANCH  12  13
ATOM     13  C   UNL     1      13.827  -6.918 -15.079  0.00  0.00    -0.028 A 
ATOM     14  C   UNL     1      13.717  -5.628 -14.543  0.00  0.00    -0.055 A 
ATOM     15  C   UNL     1      14.062  -5.382 -13.213  0.00  0.00    -0.043 A 
ATOM     16  C   UNL     1      14.479  -6.433 -12.400  0.00  0.00    +0.041 A 
ATOM     17  C   UNL     1      14.480  -7.739 -12.884  0.00  0.00    -0.043 A 
ATOM     18  C   UNL     1      14.150  -7.982 -14.221  0.00  0.00    -0.055 A 
ATOM     19 CL   UNL     1      15.054  -6.106 -10.812  0.00  0.00    -0.084 Cl
ENDBRANCH  12  13
ENDBRANCH   7  12
TORSDOF 3
ENDMDL
