MODEL 1
REMARK VINA RESULT:    -7.710      0.000      0.000
REMARK INTER + INTRA:          -8.732
REMARK INTER:                  -8.612
REMARK INTRA:                  -0.121
REMARK UNBOUND:                -0.121
REMARK  Name = 1d.sdf
REMARK  2 active torsions:
REMARK  status: ('A' for Active; 'I' for Inactive)
REMARK    1  A    between atoms: C_9  and  C_10
REMARK    2  A    between atoms: C_12  and  C_13
REMARK                            x       y       z     vdW  Elec       q    Type
REMARK                         _______ _______ _______ _____ _____    ______ ____
ROOT
ATOM      1  C   UNL     1      19.167  -7.322 -15.705  0.00  0.00    -0.061 A 
ATOM      2  C   UNL     1      18.574  -7.313 -14.449  0.00  0.00    -0.060 A 
ATOM      3  C   UNL     1      17.272  -6.835 -14.273  0.00  0.00    -0.037 A 
ATOM      4  C   UNL     1      16.570  -6.360 -15.397  0.00  0.00    +0.057 A 
ATOM      5  C   UNL     1      17.150  -6.367 -16.673  0.00  0.00    +0.011 A 
ATOM      6  C   UNL     1      18.469  -6.853 -16.821  0.00  0.00    -0.052 A 
ATOM      7  N   UNL     1      15.260  -5.890 -15.524  0.00  0.00    -0.282 N 
ATOM      8  C   UNL     1      15.066  -5.546 -16.850  0.00  0.00    +0.024 A 
ATOM      9  C   UNL     1      16.191  -5.846 -17.586  0.00  0.00    +0.040 A 
ATOM     10  C   UNL     1      14.279  -5.792 -14.506  0.00  0.00    +0.263 C 
ATOM     11  O   UNL     1      14.651  -5.731 -13.338  0.00  0.00    -0.267 OA
ENDROOT
BRANCH  10  12
ATOM     12  C   UNL     1      12.821  -5.764 -14.794  0.00  0.00    +0.040 A 
ATOM     13  C   UNL     1      12.020  -6.865 -14.464  0.00  0.00    -0.049 A 
ATOM     14  C   UNL     1      10.665  -6.864 -14.788  0.00  0.00    -0.061 A 
ATOM     15  C   UNL     1      10.101  -5.752 -15.409  0.00  0.00    -0.062 A 
ATOM     16  C   UNL     1      10.883  -4.629 -15.685  0.00  0.00    -0.061 A 
ATOM     17  C   UNL     1      12.245  -4.628 -15.373  0.00  0.00    -0.049 A 
ENDBRANCH  10  12
BRANCH   9  18
ATOM     18  C   UNL     1      16.321  -5.648 -19.019  0.00  0.00    +0.152 C 
ATOM     19  O   UNL     1      17.200  -4.960 -19.532  0.00  0.00    -0.296 OA
ENDBRANCH   9  18
TORSDOF 2
ENDMDL
MODEL 2
REMARK VINA RESULT:    -7.530      1.609      3.497
REMARK INTER + INTRA:          -8.531
REMARK INTER:                  -8.207
REMARK INTRA:                  -0.324
REMARK UNBOUND:                -0.121
REMARK  Name = 1d.sdf
REMARK  2 active torsions:
REMARK  status: ('A' for Active; 'I' for Inactive)
REMARK    1  A    between atoms: C_9  and  C_10
REMARK    2  A    between atoms: C_12  and  C_13
REMARK                            x       y       z     vdW  Elec       q    Type
REMARK                         _______ _______ _______ _____ _____    ______ ____
ROOT
ATOM      1  C   UNL     1      18.885  -6.178 -15.440  0.00  0.00    -0.061 A 
ATOM      2  C   UNL     1      18.326  -5.774 -16.646  0.00  0.00    -0.060 A 
ATOM      3  C   UNL     1      16.955  -5.906 -16.881  0.00  0.00    -0.037 A 
ATOM      4  C   UNL     1      16.147  -6.458 -15.869  0.00  0.00    +0.057 A 
ATOM      5  C   UNL     1      16.692  -6.866 -14.644  0.00  0.00    +0.011 A 
ATOM      6  C   UNL     1      18.083  -6.725 -14.435  0.00  0.00    -0.052 A 
ATOM      7  N   UNL     1      14.764  -6.649 -15.807  0.00  0.00    -0.282 N 
ATOM      8  C   UNL     1      14.476  -7.233 -14.587  0.00  0.00    +0.024 A 
ATOM      9  C   UNL     1      15.627  -7.359 -13.840  0.00  0.00    +0.040 A 
ATOM     10  C   UNL     1      13.802  -6.299 -16.788  0.00  0.00    +0.263 C 
ATOM     11  O   UNL     1      14.172  -6.173 -17.952  0.00  0.00    -0.267 OA
ENDROOT
BRANCH  10  12
ATOM     12  C   UNL     1      12.369  -6.075 -16.465  0.00  0.00    +0.040 A 
ATOM     13  C   UNL     1      11.943  -4.824 -15.998  0.00  0.00    -0.049 A 
ATOM     14  C   UNL     1      10.611  -4.630 -15.638  0.00  0.00    -0.061 A 
ATOM     15  C   UNL     1       9.696  -5.672 -15.777  0.00  0.00    -0.062 A 
ATOM     16  C   UNL     1      10.105  -6.900 -16.299  0.00  0.00    -0.061 A 
ATOM     17  C   UNL     1      11.441  -7.105 -16.651  0.00  0.00    -0.049 A 
ENDBRANCH  10  12
BRANCH   9  18
ATOM     18  C   UNL     1      15.685  -7.899 -12.493  0.00  0.00    +0.152 C 
ATOM     19  O   UNL     1      15.307  -7.285 -11.499  0.00  0.00    -0.296 OA
ENDBRANCH   9  18
TORSDOF 2
ENDMDL
MODEL 3
REMARK VINA RESULT:    -7.437      2.497      4.528
REMARK INTER + INTRA:          -8.427
REMARK INTER:                  -8.103
REMARK INTRA:                  -0.324
REMARK UNBOUND:                -0.121
REMARK  Name = 1d.sdf
REMARK  2 active torsions:
REMARK  status: ('A' for Active; 'I' for Inactive)
REMARK    1  A    between atoms: C_9  and  C_10
REMARK    2  A    between atoms: C_12  and  C_13
REMARK                            x       y       z     vdW  Elec       q    Type
REMARK                         _______ _______ _______ _____ _____    ______ ____
ROOT
ATOM      1  C   UNL     1      13.357  -4.996 -20.475  0.00  0.00    -0.061 A 
ATOM      2  C   UNL     1      12.313  -5.470 -19.690  0.00  0.00    -0.060 A 
ATOM      3  C   UNL     1      12.558  -6.025 -18.430  0.00  0.00    -0.037 A 
ATOM      4  C   UNL     1      13.887  -6.094 -17.969  0.00  0.00    +0.057 A 
ATOM      5  C   UNL     1      14.951  -5.615 -18.745  0.00  0.00    +0.011 A 
ATOM      6  C   UNL     1      14.675  -5.063 -20.016  0.00  0.00    -0.052 A 
ATOM      7  N   UNL     1      14.408  -6.534 -16.750  0.00  0.00    -0.282 N 
ATOM      8  C   UNL     1      15.783  -6.392 -16.808  0.00  0.00    +0.024 A 
ATOM      9  C   UNL     1      16.149  -5.811 -18.002  0.00  0.00    +0.040 A 
ATOM     10  C   UNL     1      13.687  -7.020 -15.631  0.00  0.00    +0.263 C 
ATOM     11  O   UNL     1      12.562  -7.478 -15.813  0.00  0.00    -0.267 OA
ENDROOT
BRANCH  10  12
ATOM     12  C   UNL     1      14.234  -6.995 -14.249  0.00  0.00    +0.040 A 
ATOM     13  C   UNL     1      14.195  -5.810 -13.502  0.00  0.00    -0.049 A 
ATOM     14  C   UNL     1      14.761  -5.769 -12.229  0.00  0.00    -0.061 A 
ATOM     15  C   UNL     1      15.334  -6.919 -11.687  0.00  0.00    -0.062 A 
ATOM     16  C   UNL     1      15.320  -8.116 -12.405  0.00  0.00    -0.061 A 
ATOM     17  C   UNL     1      14.765  -8.160 -13.686  0.00  0.00    -0.049 A 
ENDBRANCH  10  12
BRANCH   9  18
ATOM     18  C   UNL     1      17.512  -5.484 -18.381  0.00  0.00    +0.152 C 
ATOM     19  O   UNL     1      18.015  -5.810 -19.454  0.00  0.00    -0.296 OA
ENDBRANCH   9  18
TORSDOF 2
ENDMDL
