MODEL 1
REMARK VINA RESULT:    -7.705      0.000      0.000
REMARK INTER + INTRA:         -10.606
REMARK INTER:                  -9.507
REMARK INTRA:                  -1.099
REMARK UNBOUND:                -1.099
REMARK  Name = 20.sdf
REMARK  4 active torsions:
REMARK  status: ('A' for Active; 'I' for Inactive)
REMARK    1  A    between atoms: C_9  and  C_10
REMARK    2  A    between atoms: C_10  and  O_11
REMARK    3  A    between atoms: O_11  and  C_12
REMARK    4  A    between atoms: N_13  and  C_15
REMARK                            x       y       z     vdW  Elec       q    Type
REMARK                         _______ _______ _______ _____ _____    ______ ____
ROOT
ATOM      1  C   UNL     1      14.767  -5.822 -17.215  0.00  0.00    +0.121 C 
ENDROOT
BRANCH   1  10
ATOM      2  C   UNL     1      18.207  -7.281 -14.354  0.00  0.00    -0.061 A 
ATOM      3  C   UNL     1      19.471  -6.920 -14.810  0.00  0.00    -0.060 A 
ATOM      4  C   UNL     1      19.626  -6.186 -15.989  0.00  0.00    -0.038 A 
ATOM      5  C   UNL     1      18.467  -5.843 -16.698  0.00  0.00    +0.047 A 
ATOM      6  C   UNL     1      17.185  -6.198 -16.274  0.00  0.00    +0.006 A 
ATOM      7  C   UNL     1      17.059  -6.928 -15.074  0.00  0.00    -0.052 A 
ATOM      8  N   UNL     1      18.326  -5.139 -17.870  0.00  0.00    -0.360 N 
ATOM      9  C   UNL     1      17.004  -5.039 -18.206  0.00  0.00    +0.009 A 
ATOM     10  C   UNL     1      16.256  -5.691 -17.242  0.00  0.00    +0.015 A 
ATOM     11  H   UNL     1      19.069  -4.760 -18.393  0.00  0.00    +0.000 HD
ENDBRANCH   1  10
BRANCH   1  12
ATOM     12  O   UNL     1      14.366  -7.160 -16.880  0.00  0.00    -0.445 OA
BRANCH  12  13
ATOM     13  C   UNL     1      13.068  -7.347 -16.560  0.00  0.00    +0.405 C 
ATOM     14  N   UNL     1      12.765  -7.269 -15.225  0.00  0.00    -0.251 N 
ATOM     15  O   UNL     1      12.181  -7.615 -17.367  0.00  0.00    -0.226 OA
ATOM     16  H   UNL     1      11.804  -7.345 -15.028  0.00  0.00    +0.000 HD
BRANCH  14  17
ATOM     17  C   UNL     1      13.570  -7.099 -14.082  0.00  0.00    +0.036 A 
ATOM     18  C   UNL     1      13.882  -5.870 -13.500  0.00  0.00    -0.040 A 
ATOM     19  C   UNL     1      14.768  -5.798 -12.417  0.00  0.00    -0.060 A 
ATOM     20  C   UNL     1      15.339  -6.956 -11.897  0.00  0.00    -0.062 A 
ATOM     21  C   UNL     1      15.002  -8.192 -12.438  0.00  0.00    -0.060 A 
ATOM     22  C   UNL     1      14.117  -8.263 -13.519  0.00  0.00    -0.040 A 
ENDBRANCH  14  17
ENDBRANCH  12  13
ENDBRANCH   1  12
TORSDOF 4
ENDMDL
MODEL 2
REMARK VINA RESULT:    -7.512      1.415      2.280
REMARK INTER + INTRA:         -10.368
REMARK INTER:                  -9.184
REMARK INTRA:                  -1.185
REMARK UNBOUND:                -1.099
REMARK  Name = 20.sdf
REMARK  4 active torsions:
REMARK  status: ('A' for Active; 'I' for Inactive)
REMARK    1  A    between atoms: C_9  and  C_10
REMARK    2  A    between atoms: C_10  and  O_11
REMARK    3  A    between atoms: O_11  and  C_12
REMARK    4  A    between atoms: N_13  and  C_15
REMARK                            x       y       z     vdW  Elec       q    Type
REMARK                         _______ _______ _______ _____ _____    ______ ____
ROOT
ATOM      1  C   UNL     1      13.025  -7.268 -17.251  0.00  0.00    +0.121 C 
ENDROOT
BRANCH   1  10
ATOM      2  C   UNL     1      17.227  -6.100 -15.485  0.00  0.00    -0.061 A 
ATOM      3  C   UNL     1      17.960  -5.283 -16.341  0.00  0.00    -0.060 A 
ATOM      4  C   UNL     1      17.433  -4.877 -17.570  0.00  0.00    -0.038 A 
ATOM      5  C   UNL     1      16.152  -5.334 -17.911  0.00  0.00    +0.047 A 
ATOM      6  C   UNL     1      15.396  -6.162 -17.080  0.00  0.00    +0.006 A 
ATOM      7  C   UNL     1      15.949  -6.545 -15.840  0.00  0.00    -0.052 A 
ATOM      8  N   UNL     1      15.403  -5.097 -19.039  0.00  0.00    -0.360 N 
ATOM      9  C   UNL     1      14.202  -5.747 -18.954  0.00  0.00    +0.009 A 
ATOM     10  C   UNL     1      14.158  -6.430 -17.752  0.00  0.00    +0.015 A 
ATOM     11  H   UNL     1      15.688  -4.539 -19.798  0.00  0.00    +0.000 HD
ENDBRANCH   1  10
BRANCH   1  12
ATOM     12  O   UNL     1      12.310  -6.603 -16.197  0.00  0.00    -0.445 OA
BRANCH  12  13
ATOM     13  C   UNL     1      11.437  -7.349 -15.487  0.00  0.00    +0.405 C 
ATOM     14  N   UNL     1      11.898  -7.822 -14.284  0.00  0.00    -0.251 N 
ATOM     15  O   UNL     1      10.308  -7.651 -15.864  0.00  0.00    -0.226 OA
ATOM     16  H   UNL     1      11.220  -8.307 -13.760  0.00  0.00    +0.000 HD
BRANCH  14  17
ATOM     17  C   UNL     1      13.156  -7.743 -13.657  0.00  0.00    +0.036 A 
ATOM     18  C   UNL     1      14.047  -8.808 -13.516  0.00  0.00    -0.040 A 
ATOM     19  C   UNL     1      15.236  -8.652 -12.793  0.00  0.00    -0.060 A 
ATOM     20  C   UNL     1      15.553  -7.425 -12.216  0.00  0.00    -0.062 A 
ATOM     21  C   UNL     1      14.696  -6.343 -12.387  0.00  0.00    -0.060 A 
ATOM     22  C   UNL     1      13.509  -6.500 -13.110  0.00  0.00    -0.040 A 
ENDBRANCH  14  17
ENDBRANCH  12  13
ENDBRANCH   1  12
TORSDOF 4
ENDMDL
MODEL 3
REMARK VINA RESULT:    -7.170      2.043      3.671
REMARK INTER + INTRA:          -9.946
REMARK INTER:                  -8.214
REMARK INTRA:                  -1.732
REMARK UNBOUND:                -1.099
REMARK  Name = 20.sdf
REMARK  4 active torsions:
REMARK  status: ('A' for Active; 'I' for Inactive)
REMARK    1  A    between atoms: C_9  and  C_10
REMARK    2  A    between atoms: C_10  and  O_11
REMARK    3  A    between atoms: O_11  and  C_12
REMARK    4  A    between atoms: N_13  and  C_15
REMARK                            x       y       z     vdW  Elec       q    Type
REMARK                         _______ _______ _______ _____ _____    ______ ____
ROOT
ATOM      1  C   UNL     1      17.611  -5.007 -16.122  0.00  0.00    +0.121 C 
ENDROOT
BRANCH   1  10
ATOM      2  C   UNL     1      15.033  -6.378 -12.431  0.00  0.00    -0.061 A 
ATOM      3  C   UNL     1      15.401  -7.635 -11.959  0.00  0.00    -0.060 A 
ATOM      4  C   UNL     1      16.445  -8.348 -12.555  0.00  0.00    -0.038 A 
ATOM      5  C   UNL     1      17.094  -7.758 -13.648  0.00  0.00    +0.047 A 
ATOM      6  C   UNL     1      16.744  -6.504 -14.152  0.00  0.00    +0.006 A 
ATOM      7  C   UNL     1      15.694  -5.803 -13.523  0.00  0.00    -0.052 A 
ATOM      8  N   UNL     1      18.135  -8.226 -14.413  0.00  0.00    -0.360 N 
ATOM      9  C   UNL     1      18.454  -7.319 -15.385  0.00  0.00    +0.009 A 
ATOM     10  C   UNL     1      17.607  -6.232 -15.264  0.00  0.00    +0.015 A 
ATOM     11  H   UNL     1      18.587  -9.091 -14.281  0.00  0.00    +0.000 HD
ENDBRANCH   1  10
BRANCH   1  12
ATOM     12  O   UNL     1      16.321  -4.779 -16.713  0.00  0.00    -0.445 OA
BRANCH  12  13
ATOM     13  C   UNL     1      15.999  -5.532 -17.786  0.00  0.00    +0.405 C 
ATOM     14  N   UNL     1      14.806  -6.204 -17.706  0.00  0.00    -0.251 N 
ATOM     15  O   UNL     1      16.710  -5.675 -18.777  0.00  0.00    -0.226 OA
ATOM     16  H   UNL     1      14.568  -6.693 -18.527  0.00  0.00    +0.000 HD
BRANCH  14  17
ATOM     17  C   UNL     1      13.858  -6.327 -16.673  0.00  0.00    +0.036 A 
ATOM     18  C   UNL     1      13.068  -5.285 -16.185  0.00  0.00    -0.040 A 
ATOM     19  C   UNL     1      12.219  -5.487 -15.090  0.00  0.00    -0.060 A 
ATOM     20  C   UNL     1      12.139  -6.737 -14.482  0.00  0.00    -0.062 A 
ATOM     21  C   UNL     1      12.886  -7.796 -14.987  0.00  0.00    -0.060 A 
ATOM     22  C   UNL     1      13.734  -7.593 -16.080  0.00  0.00    -0.040 A 
ENDBRANCH  14  17
ENDBRANCH  12  13
ENDBRANCH   1  12
TORSDOF 4
ENDMDL
