MODEL 1
REMARK VINA RESULT:    -7.902      0.000      0.000
REMARK INTER + INTRA:         -11.578
REMARK INTER:                 -10.674
REMARK INTRA:                  -0.904
REMARK UNBOUND:                -0.904
REMARK  Name = 25a.sdf
REMARK  7 active torsions:
REMARK  status: ('A' for Active; 'I' for Inactive)
REMARK    1  A    between atoms: N_7  and  C_10
REMARK    2  A    between atoms: C_9  and  C_18
REMARK    3  A    between atoms: C_10  and  C_11
REMARK    4  A    between atoms: N_19  and  N_20
REMARK    5  A    between atoms: C_21  and  C_23
REMARK    6  A    between atoms: C_25  and  O_29
REMARK    7  A    between atoms: C_27  and  O_30
REMARK                            x       y       z     vdW  Elec       q    Type
REMARK                         _______ _______ _______ _____ _____    ______ ____
ROOT
ATOM      1  C   UNL     1      17.408  -0.987 -20.035  0.00  0.00    -0.061 A 
ATOM      2  C   UNL     1      16.847  -0.829 -21.295  0.00  0.00    -0.060 A 
ATOM      3  C   UNL     1      16.093  -1.853 -21.886  0.00  0.00    -0.038 A 
ATOM      4  C   UNL     1      15.936  -3.063 -21.186  0.00  0.00    +0.050 A 
ATOM      5  C   UNL     1      16.442  -3.218 -19.886  0.00  0.00    +0.009 A 
ATOM      6  C   UNL     1      17.192  -2.163 -19.313  0.00  0.00    -0.052 A 
ATOM      7  N   UNL     1      15.345  -4.269 -21.534  0.00  0.00    -0.342 N 
ATOM      8  C   UNL     1      15.383  -5.122 -20.457  0.00  0.00    +0.015 A 
ATOM      9  C   UNL     1      16.038  -4.504 -19.410  0.00  0.00    +0.020 A 
ENDROOT
BRANCH   9  10
ATOM     10  C   UNL     1      16.268  -5.071 -18.093  0.00  0.00    +0.055 C 
ATOM     11  N   UNL     1      15.269  -5.504 -17.393  0.00  0.00    -0.187 NA
BRANCH  11  12
ATOM     12  N   UNL     1      15.575  -6.018 -16.159  0.00  0.00    -0.203 N 
ATOM     13  C   UNL     1      14.717  -5.778 -15.086  0.00  0.00    +0.263 C 
ATOM     14  O   UNL     1      13.699  -5.104 -15.124  0.00  0.00    -0.268 OA
ATOM     15  H   UNL     1      16.392  -6.552 -16.032  0.00  0.00    +0.000 HD
BRANCH  13  16
ATOM     16  C   UNL     1      15.112  -6.406 -13.788  0.00  0.00    +0.045 A 
ATOM     17  C   UNL     1      14.749  -5.778 -12.582  0.00  0.00    -0.008 A 
ATOM     18  C   UNL     1      15.076  -6.386 -11.370  0.00  0.00    +0.121 A 
ATOM     19  C   UNL     1      15.752  -7.605 -11.338  0.00  0.00    +0.021 A 
ATOM     20  C   UNL     1      16.095  -8.217 -12.537  0.00  0.00    +0.121 A 
ATOM     21  C   UNL     1      15.780  -7.632 -13.758  0.00  0.00    -0.008 A 
BRANCH  18  22
ATOM     22  O   UNL     1      14.742  -5.832 -10.169  0.00  0.00    -0.507 OA
ATOM     23  H   UNL     1      13.841  -5.767  -9.919  0.00  0.00    +0.000 HD
ENDBRANCH  18  22
BRANCH  20  24
ATOM     24  O   UNL     1      16.739  -9.418 -12.571  0.00  0.00    -0.507 OA
ATOM     25  H   UNL     1      16.969  -9.804 -13.393  0.00  0.00    +0.000 HD
ENDBRANCH  20  24
ENDBRANCH  13  16
ENDBRANCH  11  12
ENDBRANCH   9  10
BRANCH   7  26
ATOM     26  C   UNL     1      14.888  -4.685 -22.866  0.00  0.00    +0.048 C 
BRANCH  26  27
ATOM     27  C   UNL     1      13.683  -3.902 -23.328  0.00  0.00    -0.028 A 
ATOM     28  C   UNL     1      12.558  -3.784 -22.499  0.00  0.00    -0.056 A 
ATOM     29  C   UNL     1      11.368  -3.246 -22.992  0.00  0.00    -0.047 A 
ATOM     30  C   UNL     1      11.308  -2.791 -24.306  0.00  0.00    +0.018 A 
ATOM     31  C   UNL     1      12.449  -2.792 -25.106  0.00  0.00    -0.047 A 
ATOM     32  C   UNL     1      13.635  -3.345 -24.616  0.00  0.00    -0.056 A 
ATOM     33 BR   UNL     1       9.652  -2.239 -25.032  0.00  0.00    -0.050 Br
ENDBRANCH  26  27
ENDBRANCH   7  26
TORSDOF 7
ENDMDL
MODEL 2
REMARK VINA RESULT:    -7.842      4.019      9.154
REMARK INTER + INTRA:         -11.497
REMARK INTER:                 -10.957
REMARK INTRA:                  -0.540
REMARK UNBOUND:                -0.904
REMARK  Name = 25a.sdf
REMARK  7 active torsions:
REMARK  status: ('A' for Active; 'I' for Inactive)
REMARK    1  A    between atoms: N_7  and  C_10
REMARK    2  A    between atoms: C_9  and  C_18
REMARK    3  A    between atoms: C_10  and  C_11
REMARK    4  A    between atoms: N_19  and  N_20
REMARK    5  A    between atoms: C_21  and  C_23
REMARK    6  A    between atoms: C_25  and  O_29
REMARK    7  A    between atoms: C_27  and  O_30
REMARK                            x       y       z     vdW  Elec       q    Type
REMARK                         _______ _______ _______ _____ _____    ______ ____
ROOT
ATOM      1  C   UNL     1      19.820  -6.182 -15.739  0.00  0.00    -0.061 A 
ATOM      2  C   UNL     1      19.380  -6.924 -14.650  0.00  0.00    -0.060 A 
ATOM      3  C   UNL     1      18.024  -7.246 -14.493  0.00  0.00    -0.038 A 
ATOM      4  C   UNL     1      17.106  -6.780 -15.451  0.00  0.00    +0.050 A 
ATOM      5  C   UNL     1      17.540  -6.084 -16.590  0.00  0.00    +0.009 A 
ATOM      6  C   UNL     1      18.916  -5.780 -16.724  0.00  0.00    -0.052 A 
ATOM      7  N   UNL     1      15.723  -6.846 -15.524  0.00  0.00    -0.342 N 
ATOM      8  C   UNL     1      15.302  -6.304 -16.715  0.00  0.00    +0.015 A 
ATOM      9  C   UNL     1      16.398  -5.837 -17.414  0.00  0.00    +0.020 A 
ENDROOT
BRANCH   9  10
ATOM     10  C   UNL     1      16.371  -5.211 -18.724  0.00  0.00    +0.055 C 
ATOM     11  N   UNL     1      15.601  -5.686 -19.650  0.00  0.00    -0.187 NA
BRANCH  11  12
ATOM     12  N   UNL     1      15.642  -5.039 -20.859  0.00  0.00    -0.203 N 
ATOM     13  C   UNL     1      14.516  -4.347 -21.303  0.00  0.00    +0.263 C 
ATOM     14  O   UNL     1      13.444  -4.282 -20.721  0.00  0.00    -0.268 OA
ATOM     15  H   UNL     1      16.459  -5.063 -21.408  0.00  0.00    +0.000 HD
BRANCH  13  16
ATOM     16  C   UNL     1      14.664  -3.643 -22.614  0.00  0.00    +0.045 A 
ATOM     17  C   UNL     1      15.753  -2.774 -22.808  0.00  0.00    -0.008 A 
ATOM     18  C   UNL     1      15.918  -2.151 -24.045  0.00  0.00    +0.121 A 
ATOM     19  C   UNL     1      15.022  -2.381 -25.089  0.00  0.00    +0.021 A 
ATOM     20  C   UNL     1      13.957  -3.249 -24.885  0.00  0.00    +0.121 A 
ATOM     21  C   UNL     1      13.771  -3.882 -23.661  0.00  0.00    -0.008 A 
BRANCH  18  22
ATOM     22  O   UNL     1      16.959  -1.307 -24.299  0.00  0.00    -0.507 OA
ATOM     23  H   UNL     1      17.826  -1.650 -24.392  0.00  0.00    +0.000 HD
ENDBRANCH  18  22
BRANCH  20  24
ATOM     24  O   UNL     1      13.060  -3.529 -25.872  0.00  0.00    -0.507 OA
ATOM     25  H   UNL     1      13.291  -4.122 -26.561  0.00  0.00    +0.000 HD
ENDBRANCH  20  24
ENDBRANCH  13  16
ENDBRANCH  11  12
ENDBRANCH   9  10
BRANCH   7  26
ATOM     26  C   UNL     1      14.794  -7.261 -14.464  0.00  0.00    +0.048 C 
BRANCH  26  27
ATOM     27  C   UNL     1      13.400  -6.724 -14.682  0.00  0.00    -0.028 A 
ATOM     28  C   UNL     1      12.343  -7.600 -14.971  0.00  0.00    -0.056 A 
ATOM     29  C   UNL     1      11.104  -7.105 -15.378  0.00  0.00    -0.047 A 
ATOM     30  C   UNL     1      10.904  -5.730 -15.464  0.00  0.00    +0.018 A 
ATOM     31  C   UNL     1      11.904  -4.845 -15.067  0.00  0.00    -0.047 A 
ATOM     32  C   UNL     1      13.150  -5.342 -14.674  0.00  0.00    -0.056 A 
ATOM     33 BR   UNL     1       9.293  -5.062 -16.194  0.00  0.00    -0.050 Br
ENDBRANCH  26  27
ENDBRANCH   7  26
TORSDOF 7
ENDMDL
MODEL 3
REMARK VINA RESULT:    -7.766      3.206      4.478
REMARK INTER + INTRA:         -11.394
REMARK INTER:                 -10.508
REMARK INTRA:                  -0.886
REMARK UNBOUND:                -0.904
REMARK  Name = 25a.sdf
REMARK  7 active torsions:
REMARK  status: ('A' for Active; 'I' for Inactive)
REMARK    1  A    between atoms: N_7  and  C_10
REMARK    2  A    between atoms: C_9  and  C_18
REMARK    3  A    between atoms: C_10  and  C_11
REMARK    4  A    between atoms: N_19  and  N_20
REMARK    5  A    between atoms: C_21  and  C_23
REMARK    6  A    between atoms: C_25  and  O_29
REMARK    7  A    between atoms: C_27  and  O_30
REMARK                            x       y       z     vdW  Elec       q    Type
REMARK                         _______ _______ _______ _____ _____    ______ ____
ROOT
ATOM      1  C   UNL     1      15.027  -3.620 -24.313  0.00  0.00    -0.061 A 
ATOM      2  C   UNL     1      13.757  -3.164 -24.639  0.00  0.00    -0.060 A 
ATOM      3  C   UNL     1      12.690  -3.286 -23.737  0.00  0.00    -0.038 A 
ATOM      4  C   UNL     1      12.924  -3.907 -22.498  0.00  0.00    +0.050 A 
ATOM      5  C   UNL     1      14.214  -4.317 -22.126  0.00  0.00    +0.009 A 
ATOM      6  C   UNL     1      15.272  -4.173 -23.054  0.00  0.00    -0.052 A 
ATOM      7  N   UNL     1      12.076  -4.256 -21.457  0.00  0.00    -0.342 N 
ATOM      8  C   UNL     1      12.815  -4.774 -20.421  0.00  0.00    +0.015 A 
ATOM      9  C   UNL     1      14.146  -4.812 -20.786  0.00  0.00    +0.020 A 
ENDROOT
BRANCH   9  10
ATOM     10  C   UNL     1      15.246  -5.278 -19.959  0.00  0.00    +0.055 C 
ATOM     11  N   UNL     1      15.063  -5.470 -18.692  0.00  0.00    -0.187 NA
BRANCH  11  12
ATOM     12  N   UNL     1      16.155  -5.904 -17.985  0.00  0.00    -0.203 N 
ATOM     13  C   UNL     1      16.230  -5.649 -16.617  0.00  0.00    +0.263 C 
ATOM     14  O   UNL     1      15.407  -5.027 -15.961  0.00  0.00    -0.268 OA
ATOM     15  H   UNL     1      16.880  -6.391 -18.440  0.00  0.00    +0.000 HD
BRANCH  13  16
ATOM     16  C   UNL     1      17.438  -6.190 -15.921  0.00  0.00    +0.045 A 
ATOM     17  C   UNL     1      17.284  -7.230 -14.986  0.00  0.00    -0.008 A 
ATOM     18  C   UNL     1      18.414  -7.767 -14.370  0.00  0.00    +0.121 A 
ATOM     19  C   UNL     1      19.690  -7.291 -14.671  0.00  0.00    +0.021 A 
ATOM     20  C   UNL     1      19.826  -6.270 -15.603  0.00  0.00    +0.121 A 
ATOM     21  C   UNL     1      18.715  -5.718 -16.231  0.00  0.00    -0.008 A 
BRANCH  18  22
ATOM     22  O   UNL     1      18.332  -8.783 -13.463  0.00  0.00    -0.507 OA
ATOM     23  H   UNL     1      19.087  -9.307 -13.278  0.00  0.00    +0.000 HD
ENDBRANCH  18  22
BRANCH  20  24
ATOM     24  O   UNL     1      21.047  -5.777 -15.954  0.00  0.00    -0.507 OA
ATOM     25  H   UNL     1      21.242  -5.602 -16.854  0.00  0.00    +0.000 HD
ENDBRANCH  20  24
ENDBRANCH  13  16
ENDBRANCH  11  12
ENDBRANCH   9  10
BRANCH   7  26
ATOM     26  C   UNL     1      10.607  -4.254 -21.467  0.00  0.00    +0.048 C 
BRANCH  26  27
ATOM     27  C   UNL     1      10.030  -3.197 -20.556  0.00  0.00    -0.028 A 
ATOM     28  C   UNL     1       9.299  -3.568 -19.418  0.00  0.00    -0.056 A 
ATOM     29  C   UNL     1       8.589  -2.612 -18.690  0.00  0.00    -0.047 A 
ATOM     30  C   UNL     1       8.636  -1.275 -19.075  0.00  0.00    +0.018 A 
ATOM     31  C   UNL     1       9.450  -0.873 -20.131  0.00  0.00    -0.047 A 
ATOM     32  C   UNL     1      10.149  -1.834 -20.869  0.00  0.00    -0.056 A 
ATOM     33 BR   UNL     1       7.529  -0.012 -18.208  0.00  0.00    -0.050 Br
ENDBRANCH  26  27
ENDBRANCH   7  26
TORSDOF 7
ENDMDL
