MODEL 1
REMARK VINA RESULT:    -8.475      0.000      0.000
REMARK INTER + INTRA:         -11.877
REMARK INTER:                 -11.448
REMARK INTRA:                  -0.429
REMARK UNBOUND:                -0.429
REMARK  Name = 25c.sdf
REMARK  7 active torsions:
REMARK  status: ('A' for Active; 'I' for Inactive)
REMARK    1  A    between atoms: N_7  and  C_10
REMARK    2  A    between atoms: C_9  and  C_18
REMARK    3  A    between atoms: C_10  and  C_11
REMARK    4  A    between atoms: N_19  and  N_20
REMARK    5  A    between atoms: C_21  and  C_23
REMARK    6  A    between atoms: C_25  and  O_29
REMARK    7  A    between atoms: C_27  and  O_30
REMARK                            x       y       z     vdW  Elec       q    Type
REMARK                         _______ _______ _______ _____ _____    ______ ____
ROOT
ATOM      1  C   UNL     1      19.510  -7.194 -15.955  0.00  0.00    -0.061 A 
ATOM      2  C   UNL     1      19.012  -7.637 -14.735  0.00  0.00    -0.060 A 
ATOM      3  C   UNL     1      17.718  -7.298 -14.315  0.00  0.00    -0.038 A 
ATOM      4  C   UNL     1      16.936  -6.470 -15.142  0.00  0.00    +0.050 A 
ATOM      5  C   UNL     1      17.400  -6.068 -16.407  0.00  0.00    +0.009 A 
ATOM      6  C   UNL     1      18.706  -6.435 -16.807  0.00  0.00    -0.052 A 
ATOM      7  N   UNL     1      15.689  -5.889 -14.969  0.00  0.00    -0.342 N 
ATOM      8  C   UNL     1      15.331  -5.228 -16.120  0.00  0.00    +0.015 A 
ATOM      9  C   UNL     1      16.353  -5.337 -17.044  0.00  0.00    +0.020 A 
ENDROOT
BRANCH   9  10
ATOM     10  C   UNL     1      16.347  -4.798 -18.389  0.00  0.00    +0.055 C 
ATOM     11  N   UNL     1      15.772  -5.454 -19.344  0.00  0.00    -0.187 NA
BRANCH  11  12
ATOM     12  N   UNL     1      15.814  -4.884 -20.592  0.00  0.00    -0.203 N 
ATOM     13  C   UNL     1      14.655  -4.342 -21.143  0.00  0.00    +0.263 C 
ATOM     14  O   UNL     1      13.545  -4.342 -20.617  0.00  0.00    -0.268 OA
ATOM     15  H   UNL     1      16.659  -4.859 -21.096  0.00  0.00    +0.000 HD
BRANCH  13  16
ATOM     16  C   UNL     1      14.797  -3.721 -22.492  0.00  0.00    +0.045 A 
ATOM     17  C   UNL     1      13.856  -4.000 -23.499  0.00  0.00    -0.008 A 
ATOM     18  C   UNL     1      13.973  -3.369 -24.740  0.00  0.00    +0.121 A 
ATOM     19  C   UNL     1      15.002  -2.471 -24.994  0.00  0.00    +0.021 A 
ATOM     20  C   UNL     1      15.923  -2.192 -23.994  0.00  0.00    +0.121 A 
ATOM     21  C   UNL     1      15.821  -2.804 -22.748  0.00  0.00    -0.008 A 
BRANCH  18  22
ATOM     22  O   UNL     1      13.083  -3.596 -25.749  0.00  0.00    -0.507 OA
ATOM     23  H   UNL     1      12.981  -2.966 -26.435  0.00  0.00    +0.000 HD
ENDBRANCH  18  22
BRANCH  20  24
ATOM     24  O   UNL     1      16.944  -1.318 -24.163  0.00  0.00    -0.507 OA
ATOM     25  H   UNL     1      17.762  -1.615 -24.511  0.00  0.00    +0.000 HD
ENDBRANCH  20  24
ENDBRANCH  13  16
ENDBRANCH  11  12
ENDBRANCH   9  10
BRANCH   7  26
ATOM     26  C   UNL     1      14.902  -5.816 -13.730  0.00  0.00    +0.048 C 
BRANCH  26  27
ATOM     27  C   UNL     1      13.440  -6.112 -13.961  0.00  0.00    -0.028 A 
ATOM     28  C   UNL     1      12.888  -7.328 -13.532  0.00  0.00    -0.055 A 
ATOM     29  C   UNL     1      11.606  -7.706 -13.931  0.00  0.00    -0.043 A 
ATOM     30  C   UNL     1      10.848  -6.850 -14.726  0.00  0.00    +0.041 A 
ATOM     31  C   UNL     1      11.333  -5.588 -15.060  0.00  0.00    -0.043 A 
ATOM     32  C   UNL     1      12.626  -5.218 -14.677  0.00  0.00    -0.055 A 
ATOM     33 CL   UNL     1       9.333  -7.379 -15.347  0.00  0.00    -0.084 Cl
ENDBRANCH  26  27
ENDBRANCH   7  26
TORSDOF 7
ENDMDL
MODEL 2
REMARK VINA RESULT:    -8.236      4.087      9.374
REMARK INTER + INTRA:         -11.554
REMARK INTER:                 -10.628
REMARK INTRA:                  -0.926
REMARK UNBOUND:                -0.429
REMARK  Name = 25c.sdf
REMARK  7 active torsions:
REMARK  status: ('A' for Active; 'I' for Inactive)
REMARK    1  A    between atoms: N_7  and  C_10
REMARK    2  A    between atoms: C_9  and  C_18
REMARK    3  A    between atoms: C_10  and  C_11
REMARK    4  A    between atoms: N_19  and  N_20
REMARK    5  A    between atoms: C_21  and  C_23
REMARK    6  A    between atoms: C_25  and  O_29
REMARK    7  A    between atoms: C_27  and  O_30
REMARK                            x       y       z     vdW  Elec       q    Type
REMARK                         _______ _______ _______ _____ _____    ______ ____
ROOT
ATOM      1  C   UNL     1      17.418  -1.018 -19.986  0.00  0.00    -0.061 A 
ATOM      2  C   UNL     1      16.850  -0.852 -21.244  0.00  0.00    -0.060 A 
ATOM      3  C   UNL     1      16.079  -1.866 -21.830  0.00  0.00    -0.038 A 
ATOM      4  C   UNL     1      15.915  -3.077 -21.133  0.00  0.00    +0.050 A 
ATOM      5  C   UNL     1      16.428  -3.237 -19.833  0.00  0.00    +0.009 A 
ATOM      6  C   UNL     1      17.192  -2.191 -19.263  0.00  0.00    -0.052 A 
ATOM      7  N   UNL     1      15.312  -4.277 -21.476  0.00  0.00    -0.342 N 
ATOM      8  C   UNL     1      15.351  -5.131 -20.398  0.00  0.00    +0.015 A 
ATOM      9  C   UNL     1      16.011  -4.514 -19.353  0.00  0.00    +0.020 A 
ENDROOT
BRANCH   9  10
ATOM     10  C   UNL     1      16.234  -5.076 -18.035  0.00  0.00    +0.055 C 
ATOM     11  N   UNL     1      15.297  -5.752 -17.455  0.00  0.00    -0.187 NA
BRANCH  11  12
ATOM     12  N   UNL     1      15.579  -6.246 -16.206  0.00  0.00    -0.203 N 
ATOM     13  C   UNL     1      14.806  -5.851 -15.116  0.00  0.00    +0.263 C 
ATOM     14  O   UNL     1      13.872  -5.053 -15.154  0.00  0.00    -0.268 OA
ATOM     15  H   UNL     1      16.326  -6.875 -16.080  0.00  0.00    +0.000 HD
BRANCH  13  16
ATOM     16  C   UNL     1      15.167  -6.455 -13.801  0.00  0.00    +0.045 A 
ATOM     17  C   UNL     1      14.800  -5.812 -12.605  0.00  0.00    -0.008 A 
ATOM     18  C   UNL     1      15.098  -6.417 -11.382  0.00  0.00    +0.121 A 
ATOM     19  C   UNL     1      15.750  -7.643 -11.329  0.00  0.00    +0.021 A 
ATOM     20  C   UNL     1      16.103  -8.277 -12.511  0.00  0.00    +0.121 A 
ATOM     21  C   UNL     1      15.809  -7.696 -13.741  0.00  0.00    -0.008 A 
BRANCH  18  22
ATOM     22  O   UNL     1      14.758  -5.842 -10.193  0.00  0.00    -0.507 OA
ATOM     23  H   UNL     1      14.078  -6.217  -9.669  0.00  0.00    +0.000 HD
ENDBRANCH  18  22
BRANCH  20  24
ATOM     24  O   UNL     1      16.727  -9.479 -12.538  0.00  0.00    -0.507 OA
ATOM     25  H   UNL     1      16.933  -9.882 -13.359  0.00  0.00    +0.000 HD
ENDBRANCH  20  24
ENDBRANCH  13  16
ENDBRANCH  11  12
ENDBRANCH   9  10
BRANCH   7  26
ATOM     26  C   UNL     1      14.838  -4.691 -22.803  0.00  0.00    +0.048 C 
BRANCH  26  27
ATOM     27  C   UNL     1      13.638  -3.897 -23.258  0.00  0.00    -0.028 A 
ATOM     28  C   UNL     1      12.523  -3.758 -22.418  0.00  0.00    -0.055 A 
ATOM     29  C   UNL     1      11.330  -3.221 -22.905  0.00  0.00    -0.043 A 
ATOM     30  C   UNL     1      11.258  -2.778 -24.224  0.00  0.00    +0.041 A 
ATOM     31  C   UNL     1      12.389  -2.798 -25.034  0.00  0.00    -0.043 A 
ATOM     32  C   UNL     1      13.579  -3.354 -24.552  0.00  0.00    -0.055 A 
ATOM     33 CL   UNL     1       9.748  -2.263 -24.869  0.00  0.00    -0.084 Cl
ENDBRANCH  26  27
ENDBRANCH   7  26
TORSDOF 7
ENDMDL
MODEL 3
REMARK VINA RESULT:    -8.156      4.707      9.015
REMARK INTER + INTRA:         -11.447
REMARK INTER:                 -10.591
REMARK INTRA:                  -0.855
REMARK UNBOUND:                -0.429
REMARK  Name = 25c.sdf
REMARK  7 active torsions:
REMARK  status: ('A' for Active; 'I' for Inactive)
REMARK    1  A    between atoms: N_7  and  C_10
REMARK    2  A    between atoms: C_9  and  C_18
REMARK    3  A    between atoms: C_10  and  C_11
REMARK    4  A    between atoms: N_19  and  N_20
REMARK    5  A    between atoms: C_21  and  C_23
REMARK    6  A    between atoms: C_25  and  O_29
REMARK    7  A    between atoms: C_27  and  O_30
REMARK                            x       y       z     vdW  Elec       q    Type
REMARK                         _______ _______ _______ _____ _____    ______ ____
ROOT
ATOM      1  C   UNL     1      15.345  -4.277 -21.279  0.00  0.00    -0.061 A 
ATOM      2  C   UNL     1      14.474  -3.797 -22.251  0.00  0.00    -0.060 A 
ATOM      3  C   UNL     1      13.088  -3.971 -22.131  0.00  0.00    -0.038 A 
ATOM      4  C   UNL     1      12.590  -4.672 -21.018  0.00  0.00    +0.050 A 
ATOM      5  C   UNL     1      13.451  -5.107 -19.994  0.00  0.00    +0.009 A 
ATOM      6  C   UNL     1      14.844  -4.906 -20.138  0.00  0.00    -0.052 A 
ATOM      7  N   UNL     1      11.313  -5.087 -20.671  0.00  0.00    -0.342 N 
ATOM      8  C   UNL     1      11.346  -5.673 -19.427  0.00  0.00    +0.015 A 
ATOM      9  C   UNL     1      12.648  -5.681 -18.963  0.00  0.00    +0.020 A 
ENDROOT
BRANCH   9  10
ATOM     10  C   UNL     1      13.092  -6.187 -17.680  0.00  0.00    +0.055 C 
ATOM     11  N   UNL     1      12.966  -5.457 -16.619  0.00  0.00    -0.187 NA
BRANCH  11  12
ATOM     12  N   UNL     1      13.417  -6.002 -15.442  0.00  0.00    -0.203 N 
ATOM     13  C   UNL     1      14.748  -5.830 -15.068  0.00  0.00    +0.263 C 
ATOM     14  O   UNL     1      15.603  -5.238 -15.721  0.00  0.00    -0.268 OA
ATOM     15  H   UNL     1      12.803  -6.512 -14.867  0.00  0.00    +0.000 HD
BRANCH  13  16
ATOM     16  C   UNL     1      15.146  -6.433 -13.763  0.00  0.00    +0.045 A 
ATOM     17  C   UNL     1      14.817  -5.788 -12.558  0.00  0.00    -0.008 A 
ATOM     18  C   UNL     1      15.149  -6.392 -11.344  0.00  0.00    +0.121 A 
ATOM     19  C   UNL     1      15.799  -7.619 -11.307  0.00  0.00    +0.021 A 
ATOM     20  C   UNL     1      16.114  -8.257 -12.499  0.00  0.00    +0.121 A 
ATOM     21  C   UNL     1      15.785  -7.676 -13.720  0.00  0.00    -0.008 A 
BRANCH  18  22
ATOM     22  O   UNL     1      14.846  -5.813 -10.145  0.00  0.00    -0.507 OA
ATOM     23  H   UNL     1      14.891  -6.318  -9.357  0.00  0.00    +0.000 HD
ENDBRANCH  18  22
BRANCH  20  24
ATOM     24  O   UNL     1      16.733  -9.461 -12.542  0.00  0.00    -0.507 OA
ATOM     25  H   UNL     1      16.959  -9.901 -11.746  0.00  0.00    +0.000 HD
ENDBRANCH  20  24
ENDBRANCH  13  16
ENDBRANCH  11  12
ENDBRANCH   9  10
BRANCH   7  26
ATOM     26  C   UNL     1      10.112  -5.081 -21.516  0.00  0.00    +0.048 C 
BRANCH  26  27
ATOM     27  C   UNL     1       8.985  -4.282 -20.907  0.00  0.00    -0.028 A 
ATOM     28  C   UNL     1       9.185  -2.944 -20.538  0.00  0.00    -0.055 A 
ATOM     29  C   UNL     1       8.231  -2.267 -19.778  0.00  0.00    -0.043 A 
ATOM     30  C   UNL     1       7.049  -2.910 -19.418  0.00  0.00    +0.041 A 
ATOM     31  C   UNL     1       6.781  -4.196 -19.879  0.00  0.00    -0.043 A 
ATOM     32  C   UNL     1       7.746  -4.881 -20.624  0.00  0.00    -0.055 A 
ATOM     33 CL   UNL     1       5.945  -2.132 -18.352  0.00  0.00    -0.084 Cl
ENDBRANCH  26  27
ENDBRANCH   7  26
TORSDOF 7
ENDMDL
