MODEL 1
REMARK VINA RESULT:    -6.505      0.000      0.000
REMARK INTER + INTRA:          -7.449
REMARK INTER:                  -7.266
REMARK INTRA:                  -0.184
REMARK UNBOUND:                -0.184
REMARK  Name = 2.sdf
REMARK  2 active torsions:
REMARK  status: ('A' for Active; 'I' for Inactive)
REMARK    1  A    between atoms: C_9  and  C_10
REMARK    2  A    between atoms: C_11  and  C_12
REMARK                            x       y       z     vdW  Elec       q    Type
REMARK                         _______ _______ _______ _____ _____    ______ ____
ROOT
ATOM      1  C   UNL     1      17.799  -5.564 -15.738  0.00  0.00    -0.061 A 
ATOM      2  C   UNL     1      19.009  -6.222 -15.549  0.00  0.00    -0.060 A 
ATOM      3  C   UNL     1      19.103  -7.315 -14.686  0.00  0.00    -0.038 A 
ATOM      4  C   UNL     1      17.941  -7.723 -14.019  0.00  0.00    +0.047 A 
ATOM      5  C   UNL     1      16.704  -7.091 -14.186  0.00  0.00    +0.007 A 
ATOM      6  C   UNL     1      16.645  -5.984 -15.063  0.00  0.00    -0.052 A 
ATOM      7  N   UNL     1      17.760  -8.744 -13.117  0.00  0.00    -0.360 N 
ATOM      8  C   UNL     1      16.460  -8.776 -12.688  0.00  0.00    +0.010 A 
ATOM      9  C   UNL     1      15.771  -7.777 -13.342  0.00  0.00    +0.000 A 
ATOM     10  H   UNL     1      18.466  -9.365 -12.820  0.00  0.00    +0.000 HD
ENDROOT
BRANCH   9  11
ATOM     11  C   UNL     1      14.375  -7.541 -13.114  0.00  0.00    -0.046 C 
ATOM     12  C   UNL     1      13.379  -7.981 -13.898  0.00  0.00    +0.023 C 
BRANCH  12  13
ATOM     13  C   UNL     1      11.924  -7.788 -13.740  0.00  0.00    +0.330 C 
ATOM     14  O   UNL     1      11.259  -8.728 -13.049  0.00  0.00    -0.478 OA
ATOM     15  O   UNL     1      11.366  -6.813 -14.219  0.00  0.00    -0.246 OA
ENDBRANCH  12  13
ENDBRANCH   9  11
TORSDOF 2
ENDMDL
MODEL 2
REMARK VINA RESULT:    -6.178      2.931      3.919
REMARK INTER + INTRA:          -7.084
REMARK INTER:                  -6.945
REMARK INTRA:                  -0.139
REMARK UNBOUND:                -0.184
REMARK  Name = 2.sdf
REMARK  2 active torsions:
REMARK  status: ('A' for Active; 'I' for Inactive)
REMARK    1  A    between atoms: C_9  and  C_10
REMARK    2  A    between atoms: C_11  and  C_12
REMARK                            x       y       z     vdW  Elec       q    Type
REMARK                         _______ _______ _______ _____ _____    ______ ____
ROOT
ATOM      1  C   UNL     1      15.194  -5.870 -18.435  0.00  0.00    -0.061 A 
ATOM      2  C   UNL     1      16.251  -5.733 -19.328  0.00  0.00    -0.060 A 
ATOM      3  C   UNL     1      17.574  -5.802 -18.887  0.00  0.00    -0.038 A 
ATOM      4  C   UNL     1      17.797  -6.013 -17.520  0.00  0.00    +0.047 A 
ATOM      5  C   UNL     1      16.761  -6.162 -16.592  0.00  0.00    +0.007 A 
ATOM      6  C   UNL     1      15.434  -6.080 -17.071  0.00  0.00    -0.052 A 
ATOM      7  N   UNL     1      18.982  -6.107 -16.830  0.00  0.00    -0.360 N 
ATOM      8  C   UNL     1      18.741  -6.291 -15.494  0.00  0.00    +0.010 A 
ATOM      9  C   UNL     1      17.375  -6.348 -15.311  0.00  0.00    +0.000 A 
ATOM     10  H   UNL     1      19.877  -6.050 -17.237  0.00  0.00    +0.000 HD
ENDROOT
BRANCH   9  11
ATOM     11  C   UNL     1      16.789  -6.532 -14.016  0.00  0.00    -0.046 C 
ATOM     12  C   UNL     1      15.718  -5.872 -13.551  0.00  0.00    +0.023 C 
BRANCH  12  13
ATOM     13  C   UNL     1      15.050  -5.998 -12.241  0.00  0.00    +0.330 C 
ATOM     14  O   UNL     1      15.384  -5.099 -11.301  0.00  0.00    -0.478 OA
ATOM     15  O   UNL     1      14.231  -6.882 -12.038  0.00  0.00    -0.246 OA
ENDBRANCH  12  13
ENDBRANCH   9  11
TORSDOF 2
ENDMDL
MODEL 3
REMARK VINA RESULT:    -6.067      1.837      2.649
REMARK INTER + INTRA:          -6.961
REMARK INTER:                  -6.811
REMARK INTRA:                  -0.150
REMARK UNBOUND:                -0.184
REMARK  Name = 2.sdf
REMARK  2 active torsions:
REMARK  status: ('A' for Active; 'I' for Inactive)
REMARK    1  A    between atoms: C_9  and  C_10
REMARK    2  A    between atoms: C_11  and  C_12
REMARK                            x       y       z     vdW  Elec       q    Type
REMARK                         _______ _______ _______ _____ _____    ______ ____
ROOT
ATOM      1  C   UNL     1      18.844  -7.228 -14.664  0.00  0.00    -0.061 A 
ATOM      2  C   UNL     1      19.327  -6.307 -15.586  0.00  0.00    -0.060 A 
ATOM      3  C   UNL     1      18.459  -5.443 -16.258  0.00  0.00    -0.038 A 
ATOM      4  C   UNL     1      17.091  -5.539 -15.971  0.00  0.00    +0.047 A 
ATOM      5  C   UNL     1      16.567  -6.449 -15.047  0.00  0.00    +0.007 A 
ATOM      6  C   UNL     1      17.472  -7.312 -14.389  0.00  0.00    -0.052 A 
ATOM      7  N   UNL     1      16.034  -4.830 -16.492  0.00  0.00    -0.360 N 
ATOM      8  C   UNL     1      14.855  -5.266 -15.949  0.00  0.00    +0.010 A 
ATOM      9  C   UNL     1      15.147  -6.257 -15.035  0.00  0.00    +0.000 A 
ATOM     10  H   UNL     1      16.114  -4.111 -17.161  0.00  0.00    +0.000 HD
ENDROOT
BRANCH   9  11
ATOM     11  C   UNL     1      14.124  -6.927 -14.288  0.00  0.00    -0.046 C 
ATOM     12  C   UNL     1      12.837  -7.028 -14.657  0.00  0.00    +0.023 C 
BRANCH  12  13
ATOM     13  C   UNL     1      11.724  -7.696 -13.956  0.00  0.00    +0.330 C 
ATOM     14  O   UNL     1      10.493  -7.201 -14.163  0.00  0.00    -0.478 OA
ATOM     15  O   UNL     1      11.928  -8.655 -13.228  0.00  0.00    -0.246 OA
ENDBRANCH  12  13
ENDBRANCH   9  11
TORSDOF 2
ENDMDL
