MODEL 1
REMARK VINA RESULT:    -7.317      0.000      0.000
REMARK INTER + INTRA:          -9.710
REMARK INTER:                  -9.028
REMARK INTRA:                  -0.682
REMARK UNBOUND:                -0.682
REMARK  Name = 2a.sdf
REMARK  4 active torsions:
REMARK  status: ('A' for Active; 'I' for Inactive)
REMARK    1  A    between atoms: N_7  and  C_12
REMARK    2  A    between atoms: C_9  and  C_10
REMARK    3  A    between atoms: C_11  and  C_20
REMARK    4  A    between atoms: C_12  and  C_13
REMARK                            x       y       z     vdW  Elec       q    Type
REMARK                         _______ _______ _______ _____ _____    ______ ____
ROOT
ATOM      1  C   UNL     1      18.667  -6.937 -14.625  0.00  0.00    -0.061 A 
ATOM      2  C   UNL     1      19.280  -6.484 -15.782  0.00  0.00    -0.060 A 
ATOM      3  C   UNL     1      18.520  -6.070 -16.885  0.00  0.00    -0.038 A 
ATOM      4  C   UNL     1      17.117  -6.207 -16.851  0.00  0.00    +0.050 A 
ATOM      5  C   UNL     1      16.481  -6.611 -15.664  0.00  0.00    +0.007 A 
ATOM      6  C   UNL     1      17.275  -6.963 -14.542  0.00  0.00    -0.052 A 
ATOM      7  N   UNL     1      16.126  -6.018 -17.805  0.00  0.00    -0.342 N 
ATOM      8  C   UNL     1      14.888  -6.194 -17.208  0.00  0.00    +0.013 A 
ATOM      9  C   UNL     1      15.074  -6.533 -15.889  0.00  0.00    +0.000 A 
ENDROOT
BRANCH   9  10
ATOM     10  C   UNL     1      14.057  -6.761 -14.903  0.00  0.00    -0.046 C 
ATOM     11  C   UNL     1      12.969  -7.530 -15.052  0.00  0.00    +0.023 C 
BRANCH  11  12
ATOM     12  C   UNL     1      11.902  -7.790 -14.060  0.00  0.00    +0.330 C 
ATOM     13  O   UNL     1      10.763  -7.085 -14.214  0.00  0.00    -0.478 OA
ATOM     14  O   UNL     1      12.044  -8.618 -13.191  0.00  0.00    -0.246 OA
ENDBRANCH  11  12
ENDBRANCH   9  10
BRANCH   7  15
ATOM     15  C   UNL     1      16.258  -5.831 -19.264  0.00  0.00    +0.048 C 
BRANCH  15  16
ATOM     16  C   UNL     1      16.164  -4.390 -19.711  0.00  0.00    -0.028 A 
ATOM     17  C   UNL     1      15.474  -4.057 -20.887  0.00  0.00    -0.056 A 
ATOM     18  C   UNL     1      15.625  -2.793 -21.463  0.00  0.00    -0.047 A 
ATOM     19  C   UNL     1      16.412  -1.836 -20.827  0.00  0.00    +0.018 A 
ATOM     20  C   UNL     1      16.982  -2.102 -19.583  0.00  0.00    -0.047 A 
ATOM     21  C   UNL     1      16.856  -3.377 -19.024  0.00  0.00    -0.056 A 
ATOM     22 BR   UNL     1      16.808  -0.210 -21.707  0.00  0.00    -0.050 Br
ENDBRANCH  15  16
ENDBRANCH   7  15
TORSDOF 4
ENDMDL
MODEL 2
REMARK VINA RESULT:    -7.305      3.591      4.593
REMARK INTER + INTRA:          -9.696
REMARK INTER:                  -8.934
REMARK INTRA:                  -0.761
REMARK UNBOUND:                -0.682
REMARK  Name = 2a.sdf
REMARK  4 active torsions:
REMARK  status: ('A' for Active; 'I' for Inactive)
REMARK    1  A    between atoms: N_7  and  C_12
REMARK    2  A    between atoms: C_9  and  C_10
REMARK    3  A    between atoms: C_11  and  C_20
REMARK    4  A    between atoms: C_12  and  C_13
REMARK                            x       y       z     vdW  Elec       q    Type
REMARK                         _______ _______ _______ _____ _____    ______ ____
ROOT
ATOM      1  C   UNL     1      17.641  -5.579 -17.936  0.00  0.00    -0.061 A 
ATOM      2  C   UNL     1      16.816  -5.558 -19.048  0.00  0.00    -0.060 A 
ATOM      3  C   UNL     1      15.441  -5.805 -18.929  0.00  0.00    -0.038 A 
ATOM      4  C   UNL     1      14.908  -6.174 -17.677  0.00  0.00    +0.050 A 
ATOM      5  C   UNL     1      15.724  -6.143 -16.533  0.00  0.00    +0.007 A 
ATOM      6  C   UNL     1      17.099  -5.826 -16.674  0.00  0.00    -0.052 A 
ATOM      7  N   UNL     1      13.649  -6.599 -17.274  0.00  0.00    -0.342 N 
ATOM      8  C   UNL     1      13.640  -6.730 -15.895  0.00  0.00    +0.013 A 
ATOM      9  C   UNL     1      14.891  -6.432 -15.410  0.00  0.00    +0.000 A 
ENDROOT
BRANCH   9  10
ATOM     10  C   UNL     1      15.302  -6.403 -14.036  0.00  0.00    -0.046 C 
ATOM     11  C   UNL     1      14.672  -5.771 -13.035  0.00  0.00    +0.023 C 
BRANCH  11  12
ATOM     12  C   UNL     1      15.064  -5.720 -11.609  0.00  0.00    +0.330 C 
ATOM     13  O   UNL     1      15.799  -4.654 -11.232  0.00  0.00    -0.478 OA
ATOM     14  O   UNL     1      14.705  -6.572 -10.830  0.00  0.00    -0.246 OA
ENDBRANCH  11  12
ENDBRANCH   9  10
BRANCH   7  15
ATOM     15  C   UNL     1      12.502  -7.032 -18.097  0.00  0.00    +0.048 C 
BRANCH  15  16
ATOM     16  C   UNL     1      11.546  -5.917 -18.455  0.00  0.00    -0.028 A 
ATOM     17  C   UNL     1      11.791  -5.106 -19.573  0.00  0.00    -0.056 A 
ATOM     18  C   UNL     1      11.092  -3.907 -19.746  0.00  0.00    -0.047 A 
ATOM     19  C   UNL     1      10.098  -3.554 -18.837  0.00  0.00    +0.018 A 
ATOM     20  C   UNL     1       9.739  -4.421 -17.807  0.00  0.00    -0.047 A 
ATOM     21  C   UNL     1      10.460  -5.604 -17.617  0.00  0.00    -0.056 A 
ATOM     22 BR   UNL     1       9.310  -1.837 -18.928  0.00  0.00    -0.050 Br
ENDBRANCH  15  16
ENDBRANCH   7  15
TORSDOF 4
ENDMDL
MODEL 3
REMARK VINA RESULT:    -7.305      4.144      6.203
REMARK INTER + INTRA:          -9.695
REMARK INTER:                  -9.199
REMARK INTRA:                  -0.496
REMARK UNBOUND:                -0.682
REMARK  Name = 2a.sdf
REMARK  4 active torsions:
REMARK  status: ('A' for Active; 'I' for Inactive)
REMARK    1  A    between atoms: N_7  and  C_12
REMARK    2  A    between atoms: C_9  and  C_10
REMARK    3  A    between atoms: C_11  and  C_20
REMARK    4  A    between atoms: C_12  and  C_13
REMARK                            x       y       z     vdW  Elec       q    Type
REMARK                         _______ _______ _______ _____ _____    ______ ____
ROOT
ATOM      1  C   UNL     1      16.905  -8.299 -13.088  0.00  0.00    -0.061 A 
ATOM      2  C   UNL     1      15.721  -8.833 -12.608  0.00  0.00    -0.060 A 
ATOM      3  C   UNL     1      14.485  -8.450 -13.148  0.00  0.00    -0.038 A 
ATOM      4  C   UNL     1      14.441  -7.437 -14.126  0.00  0.00    +0.050 A 
ATOM      5  C   UNL     1      15.638  -6.928 -14.663  0.00  0.00    +0.007 A 
ATOM      6  C   UNL     1      16.875  -7.383 -14.140  0.00  0.00    -0.052 A 
ATOM      7  N   UNL     1      13.395  -6.762 -14.742  0.00  0.00    -0.342 N 
ATOM      8  C   UNL     1      13.912  -5.925 -15.717  0.00  0.00    +0.013 A 
ATOM      9  C   UNL     1      15.283  -6.025 -15.710  0.00  0.00    +0.000 A 
ENDROOT
BRANCH   9  10
ATOM     10  C   UNL     1      16.204  -5.362 -16.588  0.00  0.00    -0.046 C 
ATOM     11  C   UNL     1      16.549  -5.761 -17.820  0.00  0.00    +0.023 C 
BRANCH  11  12
ATOM     12  C   UNL     1      17.491  -5.104 -18.753  0.00  0.00    +0.330 C 
ATOM     13  O   UNL     1      18.248  -5.925 -19.510  0.00  0.00    -0.478 OA
ATOM     14  O   UNL     1      17.541  -3.900 -18.847  0.00  0.00    -0.246 OA
ENDBRANCH  11  12
ENDBRANCH   9  10
BRANCH   7  15
ATOM     15  C   UNL     1      11.963  -6.733 -14.383  0.00  0.00    +0.048 C 
BRANCH  15  16
ATOM     16  C   UNL     1      11.047  -6.386 -15.533  0.00  0.00    -0.028 A 
ATOM     17  C   UNL     1      11.016  -7.191 -16.682  0.00  0.00    -0.056 A 
ATOM     18  C   UNL     1      10.407  -6.731 -17.853  0.00  0.00    -0.047 A 
ATOM     19  C   UNL     1       9.767  -5.494 -17.856  0.00  0.00    +0.018 A 
ATOM     20  C   UNL     1       9.659  -4.750 -16.683  0.00  0.00    -0.047 A 
ATOM     21  C   UNL     1      10.296  -5.196 -15.521  0.00  0.00    -0.056 A 
ATOM     22 BR   UNL     1       9.145  -4.764 -19.486  0.00  0.00    -0.050 Br
ENDBRANCH  15  16
ENDBRANCH   7  15
TORSDOF 4
ENDMDL
