MODEL 1
REMARK VINA RESULT:    -6.208      0.000      0.000
REMARK INTER + INTRA:          -7.726
REMARK INTER:                  -7.478
REMARK INTRA:                  -0.248
REMARK UNBOUND:                -0.248
REMARK  Name = 3.sdf
REMARK  4 active torsions:
REMARK  status: ('A' for Active; 'I' for Inactive)
REMARK    1  A    between atoms: CG_9  and  CB_10
REMARK    2  A    between atoms: CB_10  and  CA_11
REMARK    3  A    between atoms: CA_11  and  C_12
REMARK    4  A    between atoms: CA_11  and  N_15
REMARK                            x       y       z     vdW  Elec       q    Type
REMARK                         _______ _______ _______ _____ _____    ______ ____
ROOT
ATOM      1  CZ3 TRP A   1      17.912  -5.635 -16.008  0.00  0.00    -0.061 A 
ATOM      2  CH2 TRP A   1      19.154  -6.228 -15.798  0.00  0.00    -0.060 A 
ATOM      3  CZ2 TRP A   1      19.309  -7.261 -14.870  0.00  0.00    -0.038 A 
ATOM      4  CE2 TRP A   1      18.170  -7.684 -14.173  0.00  0.00    +0.047 A 
ATOM      5  CD2 TRP A   1      16.905  -7.134 -14.378  0.00  0.00    +0.003 A 
ATOM      6  CE3 TRP A   1      16.781  -6.078 -15.308  0.00  0.00    -0.052 A 
ATOM      7  NE1 TRP A   1      18.035  -8.659 -13.216  0.00  0.00    -0.360 N 
ATOM      8  CD1 TRP A   1      16.726  -8.781 -12.845  0.00  0.00    +0.006 A 
ATOM      9  CG  TRP A   1      15.979  -7.856 -13.549  0.00  0.00    -0.020 A 
ATOM     10  HE1 TRP A   1      18.777  -9.193 -12.850  0.00  0.00    +0.000 HD
ENDROOT
BRANCH   9  11
ATOM     11  CB  TRP A   1      14.488  -7.675 -13.514  0.00  0.00    -0.000 C 
BRANCH  11  12
ATOM     12  CA  TRP A   1      13.992  -6.420 -12.783  0.00  0.00    +0.107 C 
BRANCH  12  13
ATOM     13  N   TRP A   1      13.895  -5.259 -13.708  0.00  0.00    -0.318 N 
ATOM     14  H1  TRP A   1      13.676  -4.417 -13.176  0.00  0.00    +0.000 HD
ATOM     15  H2  TRP A   1      13.155  -5.430 -14.391  0.00  0.00    +0.000 HD
ATOM     16  H3  TRP A   1      14.783  -5.135 -14.193  0.00  0.00    +0.000 HD
ENDBRANCH  12  13
BRANCH  12  17
ATOM     17  C   TRP A   1      14.876  -6.046 -11.583  0.00  0.00    +0.322 C 
ATOM     18  O   TRP A   1      15.653  -4.953 -11.788  0.00  0.00    -0.480 OA
ATOM     19  OXT TRP A   1      14.823  -6.607 -10.498  0.00  0.00    -0.249 OA
ENDBRANCH  12  17
ENDBRANCH  11  12
ENDBRANCH   9  11
TORSDOF 4
ENDMDL
MODEL 2
REMARK VINA RESULT:    -6.188      2.139      2.372
REMARK INTER + INTRA:          -7.702
REMARK INTER:                  -7.413
REMARK INTRA:                  -0.288
REMARK UNBOUND:                -0.248
REMARK  Name = 3.sdf
REMARK  4 active torsions:
REMARK  status: ('A' for Active; 'I' for Inactive)
REMARK    1  A    between atoms: CG_9  and  CB_10
REMARK    2  A    between atoms: CB_10  and  CA_11
REMARK    3  A    between atoms: CA_11  and  C_12
REMARK    4  A    between atoms: CA_11  and  N_15
REMARK                            x       y       z     vdW  Elec       q    Type
REMARK                         _______ _______ _______ _____ _____    ______ ____
ROOT
ATOM      1  CZ3 TRP A   1      18.220  -5.954 -15.397  0.00  0.00    -0.061 A 
ATOM      2  CH2 TRP A   1      19.047  -7.060 -15.216  0.00  0.00    -0.060 A 
ATOM      3  CZ2 TRP A   1      18.679  -8.097 -14.355  0.00  0.00    -0.038 A 
ATOM      4  CE2 TRP A   1      17.448  -7.989 -13.696  0.00  0.00    +0.047 A 
ATOM      5  CD2 TRP A   1      16.582  -6.910 -13.876  0.00  0.00    +0.003 A 
ATOM      6  CE3 TRP A   1      16.987  -5.867 -14.736  0.00  0.00    -0.052 A 
ATOM      7  NE1 TRP A   1      16.848  -8.843 -12.805  0.00  0.00    -0.360 N 
ATOM      8  CD1 TRP A   1      15.614  -8.372 -12.453  0.00  0.00    +0.006 A 
ATOM      9  CG  TRP A   1      15.399  -7.171 -13.102  0.00  0.00    -0.020 A 
ATOM     10  HE1 TRP A   1      17.251  -9.676 -12.468  0.00  0.00    +0.000 HD
ENDROOT
BRANCH   9  11
ATOM     11  CB  TRP A   1      14.154  -6.330 -13.068  0.00  0.00    -0.000 C 
BRANCH  11  12
ATOM     12  CA  TRP A   1      13.183  -6.541 -14.238  0.00  0.00    +0.107 C 
BRANCH  12  13
ATOM     13  N   TRP A   1      12.737  -5.242 -14.809  0.00  0.00    -0.318 N 
ATOM     14  H1  TRP A   1      12.568  -5.350 -15.809  0.00  0.00    +0.000 HD
ATOM     15  H2  TRP A   1      13.463  -4.538 -14.662  0.00  0.00    +0.000 HD
ATOM     16  H3  TRP A   1      11.878  -4.944 -14.348  0.00  0.00    +0.000 HD
ENDBRANCH  12  13
BRANCH  12  17
ATOM     17  C   TRP A   1      11.955  -7.376 -13.844  0.00  0.00    +0.322 C 
ATOM     18  O   TRP A   1      10.795  -6.955 -14.409  0.00  0.00    -0.480 OA
ATOM     19  OXT TRP A   1      12.012  -8.393 -13.168  0.00  0.00    -0.249 OA
ENDBRANCH  12  17
ENDBRANCH  11  12
ENDBRANCH   9  11
TORSDOF 4
ENDMDL
MODEL 3
REMARK VINA RESULT:    -6.018      3.857      5.555
REMARK INTER + INTRA:          -7.498
REMARK INTER:                  -7.273
REMARK INTRA:                  -0.225
REMARK UNBOUND:                -0.248
REMARK  Name = 3.sdf
REMARK  4 active torsions:
REMARK  status: ('A' for Active; 'I' for Inactive)
REMARK    1  A    between atoms: CG_9  and  CB_10
REMARK    2  A    between atoms: CB_10  and  CA_11
REMARK    3  A    between atoms: CA_11  and  C_12
REMARK    4  A    between atoms: CA_11  and  N_15
REMARK                            x       y       z     vdW  Elec       q    Type
REMARK                         _______ _______ _______ _____ _____    ______ ____
ROOT
ATOM      1  CZ3 TRP A   1      14.125  -5.642 -14.382  0.00  0.00    -0.061 A 
ATOM      2  CH2 TRP A   1      14.476  -6.357 -13.239  0.00  0.00    -0.060 A 
ATOM      3  CZ2 TRP A   1      15.729  -6.967 -13.131  0.00  0.00    -0.038 A 
ATOM      4  CE2 TRP A   1      16.617  -6.820 -14.203  0.00  0.00    +0.047 A 
ATOM      5  CD2 TRP A   1      16.311  -6.087 -15.350  0.00  0.00    +0.003 A 
ATOM      6  CE3 TRP A   1      15.031  -5.498 -15.442  0.00  0.00    -0.052 A 
ATOM      7  NE1 TRP A   1      17.890  -7.308 -14.366  0.00  0.00    -0.360 N 
ATOM      8  CD1 TRP A   1      18.419  -6.871 -15.547  0.00  0.00    +0.006 A 
ATOM      9  CG  TRP A   1      17.474  -6.098 -16.195  0.00  0.00    -0.020 A 
ATOM     10  HE1 TRP A   1      18.354  -7.891 -13.721  0.00  0.00    +0.000 HD
ENDROOT
BRANCH   9  11
ATOM     11  CB  TRP A   1      17.640  -5.356 -17.491  0.00  0.00    -0.000 C 
BRANCH  11  12
ATOM     12  CA  TRP A   1      17.193  -6.116 -18.748  0.00  0.00    +0.107 C 
BRANCH  12  13
ATOM     13  N   TRP A   1      18.362  -6.594 -19.534  0.00  0.00    -0.318 N 
ATOM     14  H1  TRP A   1      18.179  -6.465 -20.529  0.00  0.00    +0.000 HD
ATOM     15  H2  TRP A   1      18.517  -7.585 -19.344  0.00  0.00    +0.000 HD
ATOM     16  H3  TRP A   1      19.191  -6.064 -19.268  0.00  0.00    +0.000 HD
ENDBRANCH  12  13
BRANCH  12  17
ATOM     17  C   TRP A   1      16.277  -5.276 -19.651  0.00  0.00    +0.322 C 
ATOM     18  O   TRP A   1      16.718  -4.011 -19.864  0.00  0.00    -0.480 OA
ATOM     19  OXT TRP A   1      15.290  -5.720 -20.221  0.00  0.00    -0.249 OA
ENDBRANCH  12  17
ENDBRANCH  11  12
ENDBRANCH   9  11
TORSDOF 4
ENDMDL
