MODEL 1
REMARK VINA RESULT:    -6.991      0.000      0.000
REMARK INTER + INTRA:          -9.011
REMARK INTER:                  -8.421
REMARK INTRA:                  -0.590
REMARK UNBOUND:                -0.590
REMARK  Name = 4c.sdf
REMARK  4 active torsions:
REMARK  status: ('A' for Active; 'I' for Inactive)
REMARK    1  A    between atoms: N_7  and  C_11
REMARK    2  A    between atoms: C_9  and  C_10
REMARK    3  A    between atoms: C_10  and  O_19
REMARK    4  A    between atoms: C_11  and  C_12
REMARK                            x       y       z     vdW  Elec       q    Type
REMARK                         _______ _______ _______ _____ _____    ______ ____
ROOT
ATOM      1  C   UNL     1       9.674  -5.126 -16.347  0.00  0.00    -0.061 A 
ATOM      2  C   UNL     1      10.752  -4.252 -16.422  0.00  0.00    -0.060 A 
ATOM      3  C   UNL     1      11.941  -4.510 -15.735  0.00  0.00    -0.038 A 
ATOM      4  C   UNL     1      12.024  -5.688 -14.971  0.00  0.00    +0.050 A 
ATOM      5  C   UNL     1      10.968  -6.602 -14.913  0.00  0.00    +0.005 A 
ATOM      6  C   UNL     1       9.772  -6.304 -15.600  0.00  0.00    -0.052 A 
ATOM      7  N   UNL     1      13.031  -6.186 -14.163  0.00  0.00    -0.342 N 
ATOM      8  C   UNL     1      12.661  -7.405 -13.657  0.00  0.00    +0.011 A 
ATOM      9  C   UNL     1      11.387  -7.704 -14.102  0.00  0.00    +0.003 A 
ENDROOT
BRANCH   9  10
ATOM     10  C   UNL     1      10.590  -8.925 -13.791  0.00  0.00    +0.071 C 
BRANCH  10  11
ATOM     11  O   UNL     1      10.799  -9.380 -12.455  0.00  0.00    -0.390 OA
ATOM     12  H   UNL     1      11.745  -9.543 -12.313  0.00  0.00    +0.000 HD
ENDBRANCH  10  11
ENDBRANCH   9  10
BRANCH   7  13
ATOM     13  C   UNL     1      14.261  -5.487 -13.795  0.00  0.00    +0.048 C 
BRANCH  13  14
ATOM     14  C   UNL     1      15.461  -6.050 -14.515  0.00  0.00    -0.028 A 
ATOM     15  C   UNL     1      16.401  -6.835 -13.829  0.00  0.00    -0.055 A 
ATOM     16  C   UNL     1      17.552  -7.292 -14.474  0.00  0.00    -0.043 A 
ATOM     17  C   UNL     1      17.767  -6.974 -15.813  0.00  0.00    +0.041 A 
ATOM     18  C   UNL     1      16.828  -6.226 -16.519  0.00  0.00    -0.043 A 
ATOM     19  C   UNL     1      15.678  -5.766 -15.873  0.00  0.00    -0.055 A 
ATOM     20 CL   UNL     1      19.208  -7.497 -16.592  0.00  0.00    -0.084 Cl
ENDBRANCH  13  14
ENDBRANCH   7  13
TORSDOF 4
ENDMDL
MODEL 2
REMARK VINA RESULT:    -6.954      3.020      5.902
REMARK INTER + INTRA:          -8.967
REMARK INTER:                  -8.360
REMARK INTRA:                  -0.606
REMARK UNBOUND:                -0.590
REMARK  Name = 4c.sdf
REMARK  4 active torsions:
REMARK  status: ('A' for Active; 'I' for Inactive)
REMARK    1  A    between atoms: N_7  and  C_11
REMARK    2  A    between atoms: C_9  and  C_10
REMARK    3  A    between atoms: C_10  and  O_19
REMARK    4  A    between atoms: C_11  and  C_12
REMARK                            x       y       z     vdW  Elec       q    Type
REMARK                         _______ _______ _______ _____ _____    ______ ____
ROOT
ATOM      1  C   UNL     1      17.848  -5.957 -15.229  0.00  0.00    -0.061 A 
ATOM      2  C   UNL     1      17.098  -6.336 -16.336  0.00  0.00    -0.060 A 
ATOM      3  C   UNL     1      15.730  -6.595 -16.227  0.00  0.00    -0.038 A 
ATOM      4  C   UNL     1      15.124  -6.452 -14.966  0.00  0.00    +0.050 A 
ATOM      5  C   UNL     1      15.850  -6.033 -13.846  0.00  0.00    +0.005 A 
ATOM      6  C   UNL     1      17.235  -5.800 -13.981  0.00  0.00    -0.052 A 
ATOM      7  N   UNL     1      13.826  -6.675 -14.542  0.00  0.00    -0.342 N 
ATOM      8  C   UNL     1      13.707  -6.349 -13.216  0.00  0.00    +0.011 A 
ATOM      9  C   UNL     1      14.941  -5.942 -12.744  0.00  0.00    +0.003 A 
ENDROOT
BRANCH   9  10
ATOM     10  C   UNL     1      15.274  -5.505 -11.359  0.00  0.00    +0.071 C 
BRANCH  10  11
ATOM     11  O   UNL     1      14.874  -6.464 -10.380  0.00  0.00    -0.390 OA
ATOM     12  H   UNL     1      14.018  -6.204 -10.004  0.00  0.00    +0.000 HD
ENDBRANCH  10  11
ENDBRANCH   9  10
BRANCH   7  13
ATOM     13  C   UNL     1      12.755  -7.275 -15.336  0.00  0.00    +0.048 C 
BRANCH  13  14
ATOM     14  C   UNL     1      11.995  -6.237 -16.125  0.00  0.00    -0.028 A 
ATOM     15  C   UNL     1      12.240  -6.063 -17.496  0.00  0.00    -0.055 A 
ATOM     16  C   UNL     1      11.595  -5.052 -18.210  0.00  0.00    -0.043 A 
ATOM     17  C   UNL     1      10.693  -4.213 -17.560  0.00  0.00    +0.041 A 
ATOM     18  C   UNL     1      10.410  -4.395 -16.209  0.00  0.00    -0.043 A 
ATOM     19  C   UNL     1      11.058  -5.404 -15.493  0.00  0.00    -0.055 A 
ATOM     20 CL   UNL     1       9.934  -2.938 -18.431  0.00  0.00    -0.084 Cl
ENDBRANCH  13  14
ENDBRANCH   7  13
TORSDOF 4
ENDMDL
MODEL 3
REMARK VINA RESULT:    -6.579      3.766      6.948
REMARK INTER + INTRA:          -8.515
REMARK INTER:                  -8.247
REMARK INTRA:                  -0.268
REMARK UNBOUND:                -0.590
REMARK  Name = 4c.sdf
REMARK  4 active torsions:
REMARK  status: ('A' for Active; 'I' for Inactive)
REMARK    1  A    between atoms: N_7  and  C_11
REMARK    2  A    between atoms: C_9  and  C_10
REMARK    3  A    between atoms: C_10  and  O_19
REMARK    4  A    between atoms: C_11  and  C_12
REMARK                            x       y       z     vdW  Elec       q    Type
REMARK                         _______ _______ _______ _____ _____    ______ ____
ROOT
ATOM      1  C   UNL     1      19.485  -6.186 -15.659  0.00  0.00    -0.061 A 
ATOM      2  C   UNL     1      18.869  -6.890 -14.630  0.00  0.00    -0.060 A 
ATOM      3  C   UNL     1      17.491  -7.120 -14.637  0.00  0.00    -0.038 A 
ATOM      4  C   UNL     1      16.741  -6.633 -15.722  0.00  0.00    +0.050 A 
ATOM      5  C   UNL     1      17.344  -5.958 -16.787  0.00  0.00    +0.005 A 
ATOM      6  C   UNL     1      18.734  -5.720 -16.742  0.00  0.00    -0.052 A 
ATOM      7  N   UNL     1      15.383  -6.665 -15.984  0.00  0.00    -0.342 N 
ATOM      8  C   UNL     1      15.131  -6.091 -17.203  0.00  0.00    +0.011 A 
ATOM      9  C   UNL     1      16.322  -5.642 -17.739  0.00  0.00    +0.003 A 
ENDROOT
BRANCH   9  10
ATOM     10  C   UNL     1      16.516  -4.949 -19.044  0.00  0.00    +0.071 C 
BRANCH  10  11
ATOM     11  O   UNL     1      17.303  -5.718 -19.953  0.00  0.00    -0.390 OA
ATOM     12  H   UNL     1      16.723  -6.291 -20.478  0.00  0.00    +0.000 HD
ENDBRANCH  10  11
ENDBRANCH   9  10
BRANCH   7  13
ATOM     13  C   UNL     1      14.342  -7.129 -15.067  0.00  0.00    +0.048 C 
BRANCH  13  14
ATOM     14  C   UNL     1      12.996  -6.537 -15.404  0.00  0.00    -0.028 A 
ATOM     15  C   UNL     1      12.016  -7.312 -16.043  0.00  0.00    -0.055 A 
ATOM     16  C   UNL     1      10.799  -6.746 -16.425  0.00  0.00    -0.043 A 
ATOM     17  C   UNL     1      10.549  -5.401 -16.163  0.00  0.00    +0.041 A 
ATOM     18  C   UNL     1      11.495  -4.626 -15.498  0.00  0.00    -0.043 A 
ATOM     19  C   UNL     1      12.714  -5.192 -15.118  0.00  0.00    -0.055 A 
ATOM     20 CL   UNL     1       9.069  -4.693 -16.677  0.00  0.00    -0.084 Cl
ENDBRANCH  13  14
ENDBRANCH   7  13
TORSDOF 4
ENDMDL
