MODEL 1
REMARK VINA RESULT:    -6.580      0.000      0.000
REMARK INTER + INTRA:          -7.943
REMARK INTER:                  -7.734
REMARK INTRA:                  -0.210
REMARK UNBOUND:                -0.210
REMARK  Name = 5.sdf
REMARK  4 active torsions:
REMARK  status: ('A' for Active; 'I' for Inactive)
REMARK    1  A    between atoms: C_9  and  C_10
REMARK    2  A    between atoms: C_11  and  C_12
REMARK    3  A    between atoms: C_12  and  O_13
REMARK    4  A    between atoms: O_13  and  C_15
REMARK                            x       y       z     vdW  Elec       q    Type
REMARK                         _______ _______ _______ _____ _____    ______ ____
ROOT
ATOM      1  C   UNL     1      17.834  -5.539 -15.775  0.00  0.00    -0.061 A 
ATOM      2  C   UNL     1      19.059  -6.182 -15.614  0.00  0.00    -0.060 A 
ATOM      3  C   UNL     1      19.174  -7.284 -14.766  0.00  0.00    -0.038 A 
ATOM      4  C   UNL     1      18.025  -7.708 -14.090  0.00  0.00    +0.047 A 
ATOM      5  C   UNL     1      16.773  -7.094 -14.222  0.00  0.00    +0.007 A 
ATOM      6  C   UNL     1      16.689  -5.982 -15.089  0.00  0.00    -0.052 A 
ATOM      7  N   UNL     1      17.871  -8.754 -13.213  0.00  0.00    -0.360 N 
ATOM      8  C   UNL     1      16.577  -8.821 -12.776  0.00  0.00    +0.010 A 
ATOM      9  C   UNL     1      15.852  -7.808 -13.376  0.00  0.00    +0.000 A 
ATOM     10  H   UNL     1      18.590  -9.368 -12.938  0.00  0.00    +0.000 HD
ENDROOT
BRANCH   9  11
ATOM     11  C   UNL     1      14.446  -7.565 -13.155  0.00  0.00    -0.046 C 
ATOM     12  C   UNL     1      13.462  -8.171 -13.852  0.00  0.00    +0.023 C 
BRANCH  12  13
ATOM     13  C   UNL     1      11.995  -8.039 -13.753  0.00  0.00    +0.332 C 
ATOM     14  O   UNL     1      11.351  -8.780 -13.022  0.00  0.00    -0.246 OA
BRANCH  13  15
ATOM     15  O   UNL     1      11.473  -7.056 -14.525  0.00  0.00    -0.465 OA
ATOM     16  C   UNL     1      10.106  -7.305 -14.885  0.00  0.00    +0.082 C 
ENDBRANCH  13  15
ENDBRANCH  12  13
ENDBRANCH   9  11
TORSDOF 3
ENDMDL
MODEL 2
REMARK VINA RESULT:    -6.153      1.696      2.412
REMARK INTER + INTRA:          -7.442
REMARK INTER:                  -7.236
REMARK INTRA:                  -0.206
REMARK UNBOUND:                -0.210
REMARK  Name = 5.sdf
REMARK  4 active torsions:
REMARK  status: ('A' for Active; 'I' for Inactive)
REMARK    1  A    between atoms: C_9  and  C_10
REMARK    2  A    between atoms: C_11  and  C_12
REMARK    3  A    between atoms: C_12  and  O_13
REMARK    4  A    between atoms: O_13  and  C_15
REMARK                            x       y       z     vdW  Elec       q    Type
REMARK                         _______ _______ _______ _____ _____    ______ ____
ROOT
ATOM      1  C   UNL     1      18.439  -7.651 -14.294  0.00  0.00    -0.061 A 
ATOM      2  C   UNL     1      19.073  -6.888 -15.272  0.00  0.00    -0.060 A 
ATOM      3  C   UNL     1      18.356  -5.948 -16.011  0.00  0.00    -0.038 A 
ATOM      4  C   UNL     1      16.991  -5.807 -15.737  0.00  0.00    +0.047 A 
ATOM      5  C   UNL     1      16.313  -6.551 -14.763  0.00  0.00    +0.007 A 
ATOM      6  C   UNL     1      17.067  -7.494 -14.030  0.00  0.00    -0.052 A 
ATOM      7  N   UNL     1      16.073  -4.962 -16.312  0.00  0.00    -0.360 N 
ATOM      8  C   UNL     1      14.841  -5.147 -15.751  0.00  0.00    +0.010 A 
ATOM      9  C   UNL     1      14.937  -6.126 -14.780  0.00  0.00    +0.000 A 
ATOM     10  H   UNL     1      16.275  -4.315 -17.027  0.00  0.00    +0.000 HD
ENDROOT
BRANCH   9  11
ATOM     11  C   UNL     1      13.833  -6.591 -13.972  0.00  0.00    -0.046 C 
ATOM     12  C   UNL     1      12.761  -7.242 -14.472  0.00  0.00    +0.023 C 
BRANCH  12  13
ATOM     13  C   UNL     1      11.563  -7.777 -13.796  0.00  0.00    +0.332 C 
ATOM     14  O   UNL     1      11.632  -8.802 -13.130  0.00  0.00    -0.246 OA
BRANCH  13  15
ATOM     15  O   UNL     1      10.441  -7.044 -13.989  0.00  0.00    -0.465 OA
ATOM     16  C   UNL     1       9.848  -7.272 -15.275  0.00  0.00    +0.082 C 
ENDBRANCH  13  15
ENDBRANCH  12  13
ENDBRANCH   9  11
TORSDOF 3
ENDMDL
MODEL 3
REMARK VINA RESULT:    -6.135      2.812      3.822
REMARK INTER + INTRA:          -7.420
REMARK INTER:                  -7.233
REMARK INTRA:                  -0.188
REMARK UNBOUND:                -0.210
REMARK  Name = 5.sdf
REMARK  4 active torsions:
REMARK  status: ('A' for Active; 'I' for Inactive)
REMARK    1  A    between atoms: C_9  and  C_10
REMARK    2  A    between atoms: C_11  and  C_12
REMARK    3  A    between atoms: C_12  and  O_13
REMARK    4  A    between atoms: O_13  and  C_15
REMARK                            x       y       z     vdW  Elec       q    Type
REMARK                         _______ _______ _______ _____ _____    ______ ____
ROOT
ATOM      1  C   UNL     1      15.162  -5.828 -18.436  0.00  0.00    -0.061 A 
ATOM      2  C   UNL     1      16.208  -5.617 -19.332  0.00  0.00    -0.060 A 
ATOM      3  C   UNL     1      17.532  -5.676 -18.899  0.00  0.00    -0.038 A 
ATOM      4  C   UNL     1      17.765  -5.948 -17.546  0.00  0.00    +0.047 A 
ATOM      5  C   UNL     1      16.745  -6.167 -16.611  0.00  0.00    +0.007 A 
ATOM      6  C   UNL     1      15.414  -6.102 -17.081  0.00  0.00    -0.052 A 
ATOM      7  N   UNL     1      18.959  -6.061 -16.877  0.00  0.00    -0.360 N 
ATOM      8  C   UNL     1      18.738  -6.333 -15.556  0.00  0.00    +0.010 A 
ATOM      9  C   UNL     1      17.375  -6.409 -15.339  0.00  0.00    +0.000 A 
ATOM     10  H   UNL     1      19.847  -5.961 -17.290  0.00  0.00    +0.000 HD
ENDROOT
BRANCH   9  11
ATOM     11  C   UNL     1      16.762  -6.681 -14.059  0.00  0.00    -0.046 C 
ATOM     12  C   UNL     1      15.726  -5.974 -13.559  0.00  0.00    +0.023 C 
BRANCH  12  13
ATOM     13  C   UNL     1      14.993  -6.118 -12.286  0.00  0.00    +0.332 C 
ATOM     14  O   UNL     1      15.310  -5.455 -11.307  0.00  0.00    -0.246 OA
BRANCH  13  15
ATOM     15  O   UNL     1      13.985  -7.021 -12.325  0.00  0.00    -0.465 OA
ATOM     16  C   UNL     1      13.210  -6.931 -13.529  0.00  0.00    +0.082 C 
ENDBRANCH  13  15
ENDBRANCH  12  13
ENDBRANCH   9  11
TORSDOF 3
ENDMDL
