MODEL 1
REMARK VINA RESULT:    -7.256      0.000      0.000
REMARK INTER + INTRA:         -10.073
REMARK INTER:                  -9.376
REMARK INTRA:                  -0.697
REMARK UNBOUND:                -0.697
REMARK  Name = 5a.sdf
REMARK  6 active torsions:
REMARK  status: ('A' for Active; 'I' for Inactive)
REMARK    1  A    between atoms: N_7  and  C_12
REMARK    2  A    between atoms: C_9  and  C_10
REMARK    3  A    between atoms: C_11  and  C_20
REMARK    4  A    between atoms: C_12  and  C_13
REMARK    5  A    between atoms: C_20  and  O_21
REMARK    6  A    between atoms: O_21  and  C_23
REMARK                            x       y       z     vdW  Elec       q    Type
REMARK                         _______ _______ _______ _____ _____    ______ ____
ROOT
ATOM      1  C   UNL     1      15.429  -8.839 -12.763  0.00  0.00    -0.061 A 
ATOM      2  C   UNL     1      16.755  -8.493 -13.011  0.00  0.00    -0.060 A 
ATOM      3  C   UNL     1      17.073  -7.422 -13.863  0.00  0.00    -0.038 A 
ATOM      4  C   UNL     1      16.023  -6.715 -14.486  0.00  0.00    +0.050 A 
ATOM      5  C   UNL     1      14.681  -7.014 -14.193  0.00  0.00    +0.007 A 
ATOM      6  C   UNL     1      14.395  -8.094 -13.328  0.00  0.00    -0.052 A 
ATOM      7  N   UNL     1      16.006  -5.698 -15.428  0.00  0.00    -0.342 N 
ATOM      8  C   UNL     1      14.699  -5.292 -15.647  0.00  0.00    +0.013 A 
ATOM      9  C   UNL     1      13.853  -6.079 -14.890  0.00  0.00    +0.000 A 
ENDROOT
BRANCH   9  10
ATOM     10  C   UNL     1      12.415  -6.004 -14.793  0.00  0.00    -0.046 C 
ATOM     11  C   UNL     1      11.520  -6.531 -15.643  0.00  0.00    +0.023 C 
BRANCH  11  12
ATOM     12  C   UNL     1      10.030  -6.435 -15.571  0.00  0.00    +0.332 C 
ATOM     13  O   UNL     1       9.350  -7.421 -15.362  0.00  0.00    -0.246 OA
BRANCH  12  14
ATOM     14  O   UNL     1       9.552  -5.179 -15.769  0.00  0.00    -0.465 OA
ATOM     15  C   UNL     1       9.536  -4.757 -17.140  0.00  0.00    +0.082 C 
ENDBRANCH  12  14
ENDBRANCH  11  12
ENDBRANCH   9  10
BRANCH   7  16
ATOM     16  C   UNL     1      17.146  -5.206 -16.216  0.00  0.00    +0.048 C 
BRANCH  16  17
ATOM     17  C   UNL     1      16.807  -5.062 -17.681  0.00  0.00    -0.028 A 
ATOM     18  C   UNL     1      16.921  -3.816 -18.314  0.00  0.00    -0.056 A 
ATOM     19  C   UNL     1      16.402  -3.623 -19.595  0.00  0.00    -0.047 A 
ATOM     20  C   UNL     1      15.800  -4.685 -20.264  0.00  0.00    +0.018 A 
ATOM     21  C   UNL     1      15.786  -5.957 -19.697  0.00  0.00    -0.047 A 
ATOM     22  C   UNL     1      16.293  -6.146 -18.410  0.00  0.00    -0.056 A 
ATOM     23 BR   UNL     1      14.931  -4.383 -21.915  0.00  0.00    -0.050 Br
ENDBRANCH  16  17
ENDBRANCH   7  16
TORSDOF 5
ENDMDL
MODEL 2
REMARK VINA RESULT:    -7.249      1.927      2.951
REMARK INTER + INTRA:         -10.065
REMARK INTER:                  -9.283
REMARK INTRA:                  -0.782
REMARK UNBOUND:                -0.697
REMARK  Name = 5a.sdf
REMARK  6 active torsions:
REMARK  status: ('A' for Active; 'I' for Inactive)
REMARK    1  A    between atoms: N_7  and  C_12
REMARK    2  A    between atoms: C_9  and  C_10
REMARK    3  A    between atoms: C_11  and  C_20
REMARK    4  A    between atoms: C_12  and  C_13
REMARK    5  A    between atoms: C_20  and  O_21
REMARK    6  A    between atoms: O_21  and  C_23
REMARK                            x       y       z     vdW  Elec       q    Type
REMARK                         _______ _______ _______ _____ _____    ______ ____
ROOT
ATOM      1  C   UNL     1      17.920  -6.583 -14.389  0.00  0.00    -0.061 A 
ATOM      2  C   UNL     1      18.699  -6.198 -15.477  0.00  0.00    -0.060 A 
ATOM      3  C   UNL     1      18.107  -5.866 -16.707  0.00  0.00    -0.038 A 
ATOM      4  C   UNL     1      16.704  -5.953 -16.830  0.00  0.00    +0.050 A 
ATOM      5  C   UNL     1      15.903  -6.279 -15.722  0.00  0.00    +0.007 A 
ATOM      6  C   UNL     1      16.530  -6.602 -14.498  0.00  0.00    -0.052 A 
ATOM      7  N   UNL     1      15.845  -5.790 -17.907  0.00  0.00    -0.342 N 
ATOM      8  C   UNL     1      14.533  -5.903 -17.472  0.00  0.00    +0.013 A 
ATOM      9  C   UNL     1      14.532  -6.194 -16.123  0.00  0.00    +0.000 A 
ENDROOT
BRANCH   9  10
ATOM     10  C   UNL     1      13.396  -6.384 -15.253  0.00  0.00    -0.046 C 
ATOM     11  C   UNL     1      12.854  -7.552 -14.876  0.00  0.00    +0.023 C 
BRANCH  11  12
ATOM     12  C   UNL     1      11.660  -7.761 -14.002  0.00  0.00    +0.332 C 
ATOM     13  O   UNL     1      11.640  -8.653 -13.174  0.00  0.00    -0.246 OA
BRANCH  12  14
ATOM     14  O   UNL     1      10.647  -6.888 -14.238  0.00  0.00    -0.465 OA
ATOM     15  C   UNL     1       9.791  -7.251 -15.331  0.00  0.00    +0.082 C 
ENDBRANCH  12  14
ENDBRANCH  11  12
ENDBRANCH   9  10
BRANCH   7  16
ATOM     16  C   UNL     1      16.218  -5.675 -19.324  0.00  0.00    +0.048 C 
BRANCH  16  17
ATOM     17  C   UNL     1      16.158  -4.249 -19.816  0.00  0.00    -0.028 A 
ATOM     18  C   UNL     1      15.469  -3.936 -20.997  0.00  0.00    -0.056 A 
ATOM     19  C   UNL     1      15.594  -2.672 -21.576  0.00  0.00    -0.047 A 
ATOM     20  C   UNL     1      16.379  -1.703 -20.957  0.00  0.00    +0.018 A 
ATOM     21  C   UNL     1      16.974  -1.960 -19.724  0.00  0.00    -0.047 A 
ATOM     22  C   UNL     1      16.859  -3.229 -19.152  0.00  0.00    -0.056 A 
ATOM     23 BR   UNL     1      16.703  -0.059 -21.832  0.00  0.00    -0.050 Br
ENDBRANCH  16  17
ENDBRANCH   7  16
TORSDOF 5
ENDMDL
MODEL 3
REMARK VINA RESULT:    -7.216      3.091      5.561
REMARK INTER + INTRA:         -10.023
REMARK INTER:                  -9.462
REMARK INTRA:                  -0.561
REMARK UNBOUND:                -0.697
REMARK  Name = 5a.sdf
REMARK  6 active torsions:
REMARK  status: ('A' for Active; 'I' for Inactive)
REMARK    1  A    between atoms: N_7  and  C_12
REMARK    2  A    between atoms: C_9  and  C_10
REMARK    3  A    between atoms: C_11  and  C_20
REMARK    4  A    between atoms: C_12  and  C_13
REMARK    5  A    between atoms: C_20  and  O_21
REMARK    6  A    between atoms: O_21  and  C_23
REMARK                            x       y       z     vdW  Elec       q    Type
REMARK                         _______ _______ _______ _____ _____    ______ ____
ROOT
ATOM      1  C   UNL     1      16.871  -8.248 -13.101  0.00  0.00    -0.061 A 
ATOM      2  C   UNL     1      15.689  -8.849 -12.673  0.00  0.00    -0.060 A 
ATOM      3  C   UNL     1      14.451  -8.475 -13.220  0.00  0.00    -0.038 A 
ATOM      4  C   UNL     1      14.419  -7.458 -14.196  0.00  0.00    +0.050 A 
ATOM      5  C   UNL     1      15.610  -6.889 -14.682  0.00  0.00    +0.007 A 
ATOM      6  C   UNL     1      16.839  -7.291 -14.114  0.00  0.00    -0.052 A 
ATOM      7  N   UNL     1      13.378  -6.812 -14.845  0.00  0.00    -0.342 N 
ATOM      8  C   UNL     1      13.893  -5.937 -15.789  0.00  0.00    +0.013 A 
ATOM      9  C   UNL     1      15.272  -5.968 -15.722  0.00  0.00    +0.000 A 
ENDROOT
BRANCH   9  10
ATOM     10  C   UNL     1      16.220  -5.232 -16.525  0.00  0.00    -0.046 C 
ATOM     11  C   UNL     1      16.246  -5.141 -17.863  0.00  0.00    +0.023 C 
BRANCH  11  12
ATOM     12  C   UNL     1      17.239  -4.409 -18.706  0.00  0.00    +0.332 C 
ATOM     13  O   UNL     1      18.434  -4.581 -18.557  0.00  0.00    -0.246 OA
BRANCH  12  14
ATOM     14  O   UNL     1      16.676  -3.562 -19.607  0.00  0.00    -0.465 OA
ATOM     15  C   UNL     1      15.836  -4.200 -20.579  0.00  0.00    +0.082 C 
ENDBRANCH  12  14
ENDBRANCH  11  12
ENDBRANCH   9  10
BRANCH   7  16
ATOM     16  C   UNL     1      11.948  -6.888 -14.512  0.00  0.00    +0.048 C 
BRANCH  16  17
ATOM     17  C   UNL     1      11.070  -6.447 -15.658  0.00  0.00    -0.028 A 
ATOM     18  C   UNL     1      11.007  -7.207 -16.835  0.00  0.00    -0.056 A 
ATOM     19  C   UNL     1      10.382  -6.698 -17.974  0.00  0.00    -0.047 A 
ATOM     20  C   UNL     1       9.784  -5.441 -17.931  0.00  0.00    +0.018 A 
ATOM     21  C   UNL     1       9.735  -4.725 -16.738  0.00  0.00    -0.047 A 
ATOM     22  C   UNL     1      10.372  -5.229 -15.602  0.00  0.00    -0.056 A 
ATOM     23 BR   UNL     1       9.105  -4.671 -19.518  0.00  0.00    -0.050 Br
ENDBRANCH  16  17
ENDBRANCH   7  16
TORSDOF 5
ENDMDL
