MODEL 1
REMARK VINA RESULT:    -7.170      0.000      0.000
REMARK INTER + INTRA:         -10.129
REMARK INTER:                  -9.266
REMARK INTRA:                  -0.863
REMARK UNBOUND:                -0.863
REMARK  Name = 5b.sdf
REMARK  6 active torsions:
REMARK  status: ('A' for Active; 'I' for Inactive)
REMARK    1  A    between atoms: N_7  and  C_12
REMARK    2  A    between atoms: C_9  and  C_10
REMARK    3  A    between atoms: C_11  and  C_19
REMARK    4  A    between atoms: C_12  and  C_13
REMARK    5  A    between atoms: C_19  and  O_20
REMARK    6  A    between atoms: O_20  and  C_22
REMARK                            x       y       z     vdW  Elec       q    Type
REMARK                         _______ _______ _______ _____ _____    ______ ____
ROOT
ATOM      1  C   UNL     1      15.162  -9.137 -12.754  0.00  0.00    -0.061 A 
ATOM      2  C   UNL     1      16.516  -8.828 -12.767  0.00  0.00    -0.060 A 
ATOM      3  C   UNL     1      17.001  -7.756 -13.523  0.00  0.00    -0.038 A 
ATOM      4  C   UNL     1      16.084  -6.990 -14.264  0.00  0.00    +0.050 A 
ATOM      5  C   UNL     1      14.710  -7.256 -14.232  0.00  0.00    +0.007 A 
ATOM      6  C   UNL     1      14.252  -8.358 -13.474  0.00  0.00    -0.052 A 
ATOM      7  N   UNL     1      16.266  -5.921 -15.123  0.00  0.00    -0.342 N 
ATOM      8  C   UNL     1      15.044  -5.466 -15.570  0.00  0.00    +0.013 A 
ATOM      9  C   UNL     1      14.058  -6.266 -15.031  0.00  0.00    +0.000 A 
ENDROOT
BRANCH   9  10
ATOM     10  C   UNL     1      12.640  -6.137 -15.225  0.00  0.00    -0.046 C 
ATOM     11  C   UNL     1      11.846  -7.033 -15.828  0.00  0.00    +0.023 C 
BRANCH  11  12
ATOM     12  C   UNL     1      10.390  -6.884 -16.044  0.00  0.00    +0.332 C 
ATOM     13  O   UNL     1       9.583  -7.582 -15.442  0.00  0.00    -0.246 OA
BRANCH  12  14
ATOM     14  O   UNL     1      10.084  -5.925 -16.949  0.00  0.00    -0.465 OA
ATOM     15  C   UNL     1      10.477  -6.254 -18.284  0.00  0.00    +0.082 C 
ENDBRANCH  12  14
ENDBRANCH  11  12
ENDBRANCH   9  10
BRANCH   7  16
ATOM     16  C   UNL     1      17.552  -5.419 -15.606  0.00  0.00    +0.048 C 
BRANCH  16  17
ATOM     17  C   UNL     1      18.025  -6.145 -16.837  0.00  0.00    -0.025 A 
ATOM     18  C   UNL     1      17.642  -5.723 -18.115  0.00  0.00    -0.039 A 
ATOM     19  C   UNL     1      18.061  -6.455 -19.215  0.00  0.00    +0.028 A 
ATOM     20  N   UNL     1      18.839  -7.553 -19.134  0.00  0.00    -0.263 NA
ATOM     21  C   UNL     1      19.215  -7.937 -17.896  0.00  0.00    +0.028 A 
ATOM     22  C   UNL     1      18.844  -7.274 -16.736  0.00  0.00    -0.039 A 
ENDBRANCH  16  17
ENDBRANCH   7  16
TORSDOF 5
ENDMDL
MODEL 2
REMARK VINA RESULT:    -6.918      3.175      5.854
REMARK INTER + INTRA:          -9.804
REMARK INTER:                  -9.275
REMARK INTRA:                  -0.528
REMARK UNBOUND:                -0.863
REMARK  Name = 5b.sdf
REMARK  6 active torsions:
REMARK  status: ('A' for Active; 'I' for Inactive)
REMARK    1  A    between atoms: N_7  and  C_12
REMARK    2  A    between atoms: C_9  and  C_10
REMARK    3  A    between atoms: C_11  and  C_19
REMARK    4  A    between atoms: C_12  and  C_13
REMARK    5  A    between atoms: C_19  and  O_20
REMARK    6  A    between atoms: O_20  and  C_22
REMARK                            x       y       z     vdW  Elec       q    Type
REMARK                         _______ _______ _______ _____ _____    ______ ____
ROOT
ATOM      1  C   UNL     1      19.153  -7.280 -15.832  0.00  0.00    -0.061 A 
ATOM      2  C   UNL     1      18.622  -7.427 -14.557  0.00  0.00    -0.060 A 
ATOM      3  C   UNL     1      17.308  -7.038 -14.276  0.00  0.00    -0.038 A 
ATOM      4  C   UNL     1      16.532  -6.500 -15.318  0.00  0.00    +0.050 A 
ATOM      5  C   UNL     1      17.032  -6.382 -16.621  0.00  0.00    +0.007 A 
ATOM      6  C   UNL     1      18.368  -6.768 -16.869  0.00  0.00    -0.052 A 
ATOM      7  N   UNL     1      15.244  -5.995 -15.334  0.00  0.00    -0.342 N 
ATOM      8  C   UNL     1      14.899  -5.633 -16.619  0.00  0.00    +0.013 A 
ATOM      9  C   UNL     1      15.981  -5.868 -17.442  0.00  0.00    +0.000 A 
ENDROOT
BRANCH   9  10
ATOM     10  C   UNL     1      16.051  -5.644 -18.860  0.00  0.00    -0.046 C 
ATOM     11  C   UNL     1      15.134  -5.005 -19.600  0.00  0.00    +0.023 C 
BRANCH  11  12
ATOM     12  C   UNL     1      15.203  -4.799 -21.064  0.00  0.00    +0.332 C 
ATOM     13  O   UNL     1      14.522  -5.465 -21.833  0.00  0.00    -0.246 OA
BRANCH  12  14
ATOM     14  O   UNL     1      16.076  -3.827 -21.421  0.00  0.00    -0.465 OA
ATOM     15  C   UNL     1      15.451  -2.569 -21.692  0.00  0.00    +0.082 C 
ENDBRANCH  12  14
ENDBRANCH  11  12
ENDBRANCH   9  10
BRANCH   7  16
ATOM     16  C   UNL     1      14.407  -5.744 -14.162  0.00  0.00    +0.048 C 
BRANCH  16  17
ATOM     17  C   UNL     1      13.041  -6.365 -14.288  0.00  0.00    -0.025 A 
ATOM     18  C   UNL     1      11.996  -5.684 -14.922  0.00  0.00    -0.039 A 
ATOM     19  C   UNL     1      10.743  -6.275 -14.967  0.00  0.00    +0.028 A 
ATOM     20  N   UNL     1      10.466  -7.488 -14.448  0.00  0.00    -0.263 NA
ATOM     21  C   UNL     1      11.489  -8.140 -13.858  0.00  0.00    +0.028 A 
ATOM     22  C   UNL     1      12.774  -7.631 -13.758  0.00  0.00    -0.039 A 
ENDBRANCH  16  17
ENDBRANCH   7  16
TORSDOF 5
ENDMDL
MODEL 3
REMARK VINA RESULT:    -6.651      3.542      6.295
REMARK INTER + INTRA:          -9.459
REMARK INTER:                  -8.755
REMARK INTRA:                  -0.704
REMARK UNBOUND:                -0.863
REMARK  Name = 5b.sdf
REMARK  6 active torsions:
REMARK  status: ('A' for Active; 'I' for Inactive)
REMARK    1  A    between atoms: N_7  and  C_12
REMARK    2  A    between atoms: C_9  and  C_10
REMARK    3  A    between atoms: C_11  and  C_19
REMARK    4  A    between atoms: C_12  and  C_13
REMARK    5  A    between atoms: C_19  and  O_20
REMARK    6  A    between atoms: O_20  and  C_22
REMARK                            x       y       z     vdW  Elec       q    Type
REMARK                         _______ _______ _______ _____ _____    ______ ____
ROOT
ATOM      1  C   UNL     1       9.855  -4.592 -17.421  0.00  0.00    -0.061 A 
ATOM      2  C   UNL     1       9.452  -5.044 -16.172  0.00  0.00    -0.060 A 
ATOM      3  C   UNL     1      10.279  -5.871 -15.405  0.00  0.00    -0.038 A 
ATOM      4  C   UNL     1      11.535  -6.229 -15.925  0.00  0.00    +0.050 A 
ATOM      5  C   UNL     1      11.981  -5.751 -17.164  0.00  0.00    +0.007 A 
ATOM      6  C   UNL     1      11.115  -4.931 -17.923  0.00  0.00    -0.052 A 
ATOM      7  N   UNL     1      12.531  -7.052 -15.431  0.00  0.00    -0.342 N 
ATOM      8  C   UNL     1      13.612  -7.045 -16.285  0.00  0.00    +0.013 A 
ATOM      9  C   UNL     1      13.308  -6.242 -17.365  0.00  0.00    +0.000 A 
ENDROOT
BRANCH   9  10
ATOM     10  C   UNL     1      14.157  -5.945 -18.487  0.00  0.00    -0.046 C 
ATOM     11  C   UNL     1      15.472  -5.693 -18.430  0.00  0.00    +0.023 C 
BRANCH  11  12
ATOM     12  C   UNL     1      16.335  -5.366 -19.587  0.00  0.00    +0.332 C 
ATOM     13  O   UNL     1      17.553  -5.463 -19.519  0.00  0.00    -0.246 OA
BRANCH  12  14
ATOM     14  O   UNL     1      15.633  -4.963 -20.674  0.00  0.00    -0.465 OA
ATOM     15  C   UNL     1      15.752  -3.564 -20.943  0.00  0.00    +0.082 C 
ENDBRANCH  12  14
ENDBRANCH  11  12
ENDBRANCH   9  10
BRANCH   7  16
ATOM     16  C   UNL     1      12.424  -7.916 -14.255  0.00  0.00    +0.048 C 
BRANCH  16  17
ATOM     17  C   UNL     1      13.678  -7.906 -13.421  0.00  0.00    -0.025 A 
ATOM     18  C   UNL     1      14.078  -6.755 -12.734  0.00  0.00    -0.039 A 
ATOM     19  C   UNL     1      15.267  -6.780 -12.021  0.00  0.00    +0.028 A 
ATOM     20  N   UNL     1      16.065  -7.863 -11.931  0.00  0.00    -0.263 NA
ATOM     21  C   UNL     1      15.655  -8.972 -12.582  0.00  0.00    +0.028 A 
ATOM     22  C   UNL     1      14.487  -9.044 -13.325  0.00  0.00    -0.039 A 
ENDBRANCH  16  17
ENDBRANCH   7  16
TORSDOF 5
ENDMDL
