MODEL 1
REMARK VINA RESULT:    -7.412      0.000      0.000
REMARK INTER + INTRA:         -10.198
REMARK INTER:                  -9.579
REMARK INTRA:                  -0.619
REMARK UNBOUND:                -0.619
REMARK  Name = 5c.sdf
REMARK  6 active torsions:
REMARK  status: ('A' for Active; 'I' for Inactive)
REMARK    1  A    between atoms: N_7  and  C_12
REMARK    2  A    between atoms: C_9  and  C_10
REMARK    3  A    between atoms: C_11  and  C_20
REMARK    4  A    between atoms: C_12  and  C_13
REMARK    5  A    between atoms: C_20  and  O_21
REMARK    6  A    between atoms: O_21  and  C_23
REMARK                            x       y       z     vdW  Elec       q    Type
REMARK                         _______ _______ _______ _____ _____    ______ ____
ROOT
ATOM      1  C   UNL     1      17.613  -8.618 -13.312  0.00  0.00    -0.061 A 
ATOM      2  C   UNL     1      18.662  -8.020 -14.000  0.00  0.00    -0.060 A 
ATOM      3  C   UNL     1      18.437  -6.933 -14.850  0.00  0.00    -0.038 A 
ATOM      4  C   UNL     1      17.122  -6.455 -14.991  0.00  0.00    +0.050 A 
ATOM      5  C   UNL     1      16.055  -7.017 -14.278  0.00  0.00    +0.007 A 
ATOM      6  C   UNL     1      16.313  -8.122 -13.437  0.00  0.00    -0.052 A 
ATOM      7  N   UNL     1      16.594  -5.442 -15.772  0.00  0.00    -0.342 N 
ATOM      8  C   UNL     1      15.243  -5.318 -15.527  0.00  0.00    +0.013 A 
ATOM      9  C   UNL     1      14.879  -6.270 -14.600  0.00  0.00    +0.000 A 
ENDROOT
BRANCH   9  10
ATOM     10  C   UNL     1      13.567  -6.476 -14.056  0.00  0.00    -0.046 C 
ATOM     11  C   UNL     1      12.780  -7.538 -14.295  0.00  0.00    +0.023 C 
BRANCH  11  12
ATOM     12  C   UNL     1      11.423  -7.738 -13.745  0.00  0.00    +0.332 C 
ATOM     13  O   UNL     1      11.186  -8.629 -12.940  0.00  0.00    -0.246 OA
BRANCH  12  14
ATOM     14  O   UNL     1      10.523  -6.846 -14.224  0.00  0.00    -0.465 OA
ATOM     15  C   UNL     1       9.984  -7.207 -15.500  0.00  0.00    +0.082 C 
ENDBRANCH  12  14
ENDBRANCH  11  12
ENDBRANCH   9  10
BRANCH   7  16
ATOM     16  C   UNL     1      17.319  -4.656 -16.770  0.00  0.00    +0.048 C 
BRANCH  16  17
ATOM     17  C   UNL     1      16.714  -4.820 -18.143  0.00  0.00    -0.028 A 
ATOM     18  C   UNL     1      16.639  -3.729 -19.023  0.00  0.00    -0.055 A 
ATOM     19  C   UNL     1      15.940  -3.838 -20.227  0.00  0.00    -0.043 A 
ATOM     20  C   UNL     1      15.329  -5.041 -20.567  0.00  0.00    +0.041 A 
ATOM     21  C   UNL     1      15.453  -6.153 -19.737  0.00  0.00    -0.043 A 
ATOM     22  C   UNL     1      16.146  -6.044 -18.530  0.00  0.00    -0.055 A 
ATOM     23 CL   UNL     1      14.392  -5.148 -22.006  0.00  0.00    -0.084 Cl
ENDBRANCH  16  17
ENDBRANCH   7  16
TORSDOF 5
ENDMDL
MODEL 2
REMARK VINA RESULT:    -7.319      1.724      2.467
REMARK INTER + INTRA:         -10.077
REMARK INTER:                  -9.347
REMARK INTRA:                  -0.731
REMARK UNBOUND:                -0.619
REMARK  Name = 5c.sdf
REMARK  6 active torsions:
REMARK  status: ('A' for Active; 'I' for Inactive)
REMARK    1  A    between atoms: N_7  and  C_12
REMARK    2  A    between atoms: C_9  and  C_10
REMARK    3  A    between atoms: C_11  and  C_20
REMARK    4  A    between atoms: C_12  and  C_13
REMARK    5  A    between atoms: C_20  and  O_21
REMARK    6  A    between atoms: O_21  and  C_23
REMARK                            x       y       z     vdW  Elec       q    Type
REMARK                         _______ _______ _______ _____ _____    ______ ____
ROOT
ATOM      1  C   UNL     1      18.259  -6.560 -14.652  0.00  0.00    -0.061 A 
ATOM      2  C   UNL     1      18.959  -6.271 -15.817  0.00  0.00    -0.060 A 
ATOM      3  C   UNL     1      18.286  -6.022 -17.017  0.00  0.00    -0.038 A 
ATOM      4  C   UNL     1      16.880  -6.065 -17.017  0.00  0.00    +0.050 A 
ATOM      5  C   UNL     1      16.152  -6.314 -15.846  0.00  0.00    +0.007 A 
ATOM      6  C   UNL     1      16.862  -6.575 -14.653  0.00  0.00    -0.052 A 
ATOM      7  N   UNL     1      15.959  -5.903 -18.037  0.00  0.00    -0.342 N 
ATOM      8  C   UNL     1      14.680  -5.986 -17.529  0.00  0.00    +0.013 A 
ATOM      9  C   UNL     1      14.763  -6.230 -16.175  0.00  0.00    +0.000 A 
ENDROOT
BRANCH   9  10
ATOM     10  C   UNL     1      13.665  -6.373 -15.264  0.00  0.00    -0.046 C 
ATOM     11  C   UNL     1      12.980  -7.506 -15.035  0.00  0.00    +0.023 C 
BRANCH  11  12
ATOM     12  C   UNL     1      11.839  -7.644 -14.106  0.00  0.00    +0.332 C 
ATOM     13  O   UNL     1      11.859  -8.453 -13.188  0.00  0.00    -0.246 OA
BRANCH  12  14
ATOM     14  O   UNL     1      10.823  -6.796 -14.390  0.00  0.00    -0.465 OA
ATOM     15  C   UNL     1      10.054  -7.186 -15.532  0.00  0.00    +0.082 C 
ENDBRANCH  12  14
ENDBRANCH  11  12
ENDBRANCH   9  10
BRANCH   7  16
ATOM     16  C   UNL     1      16.265  -5.740 -19.458  0.00  0.00    +0.048 C 
BRANCH  16  17
ATOM     17  C   UNL     1      16.242  -4.286 -19.861  0.00  0.00    -0.028 A 
ATOM     18  C   UNL     1      15.634  -3.889 -21.061  0.00  0.00    -0.055 A 
ATOM     19  C   UNL     1      15.749  -2.572 -21.512  0.00  0.00    -0.043 A 
ATOM     20  C   UNL     1      16.456  -1.641 -20.757  0.00  0.00    +0.041 A 
ATOM     21  C   UNL     1      17.007  -2.002 -19.530  0.00  0.00    -0.043 A 
ATOM     22  C   UNL     1      16.898  -3.320 -19.081  0.00  0.00    -0.055 A 
ATOM     23 CL   UNL     1      16.675  -0.044 -21.356  0.00  0.00    -0.084 Cl
ENDBRANCH  16  17
ENDBRANCH   7  16
TORSDOF 5
ENDMDL
MODEL 3
REMARK VINA RESULT:    -7.310      3.420      5.940
REMARK INTER + INTRA:         -10.065
REMARK INTER:                  -9.784
REMARK INTRA:                  -0.281
REMARK UNBOUND:                -0.619
REMARK  Name = 5c.sdf
REMARK  6 active torsions:
REMARK  status: ('A' for Active; 'I' for Inactive)
REMARK    1  A    between atoms: N_7  and  C_12
REMARK    2  A    between atoms: C_9  and  C_10
REMARK    3  A    between atoms: C_11  and  C_20
REMARK    4  A    between atoms: C_12  and  C_13
REMARK    5  A    between atoms: C_20  and  O_21
REMARK    6  A    between atoms: O_21  and  C_23
REMARK                            x       y       z     vdW  Elec       q    Type
REMARK                         _______ _______ _______ _____ _____    ______ ____
ROOT
ATOM      1  C   UNL     1      19.444  -7.331 -15.968  0.00  0.00    -0.061 A 
ATOM      2  C   UNL     1      18.972  -7.674 -14.707  0.00  0.00    -0.060 A 
ATOM      3  C   UNL     1      17.721  -7.235 -14.263  0.00  0.00    -0.038 A 
ATOM      4  C   UNL     1      16.946  -6.441 -15.127  0.00  0.00    +0.050 A 
ATOM      5  C   UNL     1      17.384  -6.115 -16.417  0.00  0.00    +0.007 A 
ATOM      6  C   UNL     1      18.658  -6.562 -16.830  0.00  0.00    -0.052 A 
ATOM      7  N   UNL     1      15.711  -5.839 -14.957  0.00  0.00    -0.342 N 
ATOM      8  C   UNL     1      15.341  -5.196 -16.118  0.00  0.00    +0.013 A 
ATOM      9  C   UNL     1      16.348  -5.355 -17.046  0.00  0.00    +0.000 A 
ENDROOT
BRANCH   9  10
ATOM     10  C   UNL     1      16.358  -4.856 -18.390  0.00  0.00    -0.046 C 
ATOM     11  C   UNL     1      15.453  -5.145 -19.339  0.00  0.00    +0.023 C 
BRANCH  11  12
ATOM     12  C   UNL     1      15.476  -4.640 -20.728  0.00  0.00    +0.332 C 
ATOM     13  O   UNL     1      16.230  -3.737 -21.065  0.00  0.00    -0.246 OA
BRANCH  12  14
ATOM     14  O   UNL     1      14.599  -5.281 -21.537  0.00  0.00    -0.465 OA
ATOM     15  C   UNL     1      13.332  -4.625 -21.641  0.00  0.00    +0.082 C 
ENDBRANCH  12  14
ENDBRANCH  11  12
ENDBRANCH   9  10
BRANCH   7  16
ATOM     16  C   UNL     1      14.929  -5.809 -13.721  0.00  0.00    +0.048 C 
BRANCH  16  17
ATOM     17  C   UNL     1      13.478  -6.129 -13.982  0.00  0.00    -0.028 A 
ATOM     18  C   UNL     1      12.941  -7.366 -13.597  0.00  0.00    -0.055 A 
ATOM     19  C   UNL     1      11.646  -7.726 -13.977  0.00  0.00    -0.043 A 
ATOM     20  C   UNL     1      10.875  -6.844 -14.728  0.00  0.00    +0.041 A 
ATOM     21  C   UNL     1      11.368  -5.585 -15.060  0.00  0.00    -0.043 A 
ATOM     22  C   UNL     1      12.664  -5.226 -14.686  0.00  0.00    -0.055 A 
ATOM     23 CL   UNL     1       9.316  -7.324 -15.274  0.00  0.00    -0.084 Cl
ENDBRANCH  16  17
ENDBRANCH   7  16
TORSDOF 5
ENDMDL
