MODEL 1
REMARK VINA RESULT:    -7.855      0.000      0.000
REMARK INTER + INTRA:         -10.292
REMARK INTER:                  -9.691
REMARK INTRA:                  -0.601
REMARK UNBOUND:                -0.601
REMARK  Name = 5d.sdf
REMARK  5 active torsions:
REMARK  status: ('A' for Active; 'I' for Inactive)
REMARK    1  A    between atoms: C_9  and  C_10
REMARK    2  A    between atoms: C_11  and  C_19
REMARK    3  A    between atoms: C_12  and  C_13
REMARK    4  A    between atoms: C_19  and  O_20
REMARK    5  A    between atoms: O_20  and  C_22
REMARK                            x       y       z     vdW  Elec       q    Type
REMARK                         _______ _______ _______ _____ _____    ______ ____
ROOT
ATOM      1  C   UNL     1       9.844  -4.500 -18.082  0.00  0.00    -0.061 A 
ATOM      2  C   UNL     1       9.330  -4.931 -16.866  0.00  0.00    -0.060 A 
ATOM      3  C   UNL     1      10.105  -5.697 -15.993  0.00  0.00    -0.037 A 
ATOM      4  C   UNL     1      11.422  -6.026 -16.368  0.00  0.00    +0.057 A 
ATOM      5  C   UNL     1      11.963  -5.596 -17.589  0.00  0.00    +0.007 A 
ATOM      6  C   UNL     1      11.154  -4.826 -18.452  0.00  0.00    -0.052 A 
ATOM      7  N   UNL     1      12.420  -6.714 -15.677  0.00  0.00    -0.283 N 
ATOM      8  C   UNL     1      13.536  -6.778 -16.500  0.00  0.00    +0.021 A 
ATOM      9  C   UNL     1      13.304  -6.079 -17.662  0.00  0.00    +0.001 A 
ATOM     10  C   UNL     1      12.346  -7.241 -14.361  0.00  0.00    +0.263 C 
ATOM     11  O   UNL     1      11.241  -7.500 -13.891  0.00  0.00    -0.267 OA
ENDROOT
BRANCH  10  12
ATOM     12  C   UNL     1      13.551  -7.487 -13.527  0.00  0.00    +0.040 A 
ATOM     13  C   UNL     1      14.111  -6.438 -12.785  0.00  0.00    -0.049 A 
ATOM     14  C   UNL     1      15.281  -6.642 -12.059  0.00  0.00    -0.061 A 
ATOM     15  C   UNL     1      15.874  -7.903 -12.041  0.00  0.00    -0.062 A 
ATOM     16  C   UNL     1      15.284  -8.967 -12.727  0.00  0.00    -0.061 A 
ATOM     17  C   UNL     1      14.114  -8.766 -13.465  0.00  0.00    -0.049 A 
ENDBRANCH  10  12
BRANCH   9  18
ATOM     18  C   UNL     1      14.244  -5.886 -18.730  0.00  0.00    -0.046 C 
ATOM     19  C   UNL     1      15.480  -5.377 -18.595  0.00  0.00    +0.023 C 
BRANCH  19  20
ATOM     20  C   UNL     1      16.467  -5.160 -19.673  0.00  0.00    +0.332 C 
ATOM     21  O   UNL     1      16.210  -4.446 -20.632  0.00  0.00    -0.246 OA
BRANCH  20  22
ATOM     22  O   UNL     1      17.630  -5.826 -19.469  0.00  0.00    -0.465 OA
ATOM     23  C   UNL     1      17.927  -6.033 -18.083  0.00  0.00    +0.082 C 
ENDBRANCH  20  22
ENDBRANCH  19  20
ENDBRANCH   9  18
TORSDOF 4
ENDMDL
MODEL 2
REMARK VINA RESULT:    -7.707      2.507      7.778
REMARK INTER + INTRA:         -10.111
REMARK INTER:                  -9.643
REMARK INTRA:                  -0.468
REMARK UNBOUND:                -0.601
REMARK  Name = 5d.sdf
REMARK  5 active torsions:
REMARK  status: ('A' for Active; 'I' for Inactive)
REMARK    1  A    between atoms: C_9  and  C_10
REMARK    2  A    between atoms: C_11  and  C_19
REMARK    3  A    between atoms: C_12  and  C_13
REMARK    4  A    between atoms: C_19  and  O_20
REMARK    5  A    between atoms: O_20  and  C_22
REMARK                            x       y       z     vdW  Elec       q    Type
REMARK                         _______ _______ _______ _____ _____    ______ ____
ROOT
ATOM      1  C   UNL     1      18.611  -6.743 -14.271  0.00  0.00    -0.061 A 
ATOM      2  C   UNL     1      19.375  -6.573 -15.418  0.00  0.00    -0.060 A 
ATOM      3  C   UNL     1      18.766  -6.342 -16.655  0.00  0.00    -0.037 A 
ATOM      4  C   UNL     1      17.361  -6.287 -16.717  0.00  0.00    +0.057 A 
ATOM      5  C   UNL     1      16.571  -6.450 -15.569  0.00  0.00    +0.007 A 
ATOM      6  C   UNL     1      17.215  -6.685 -14.334  0.00  0.00    -0.052 A 
ATOM      7  N   UNL     1      16.508  -6.016 -17.787  0.00  0.00    -0.283 N 
ATOM      8  C   UNL     1      15.203  -6.095 -17.318  0.00  0.00    +0.021 A 
ATOM      9  C   UNL     1      15.205  -6.326 -15.962  0.00  0.00    +0.001 A 
ATOM     10  C   UNL     1      16.877  -5.690 -19.118  0.00  0.00    +0.263 C 
ATOM     11  O   UNL     1      17.981  -6.041 -19.526  0.00  0.00    -0.267 OA
ENDROOT
BRANCH  10  12
ATOM     12  C   UNL     1      15.983  -4.936 -20.036  0.00  0.00    +0.040 A 
ATOM     13  C   UNL     1      14.967  -5.609 -20.729  0.00  0.00    -0.049 A 
ATOM     14  C   UNL     1      14.173  -4.923 -21.645  0.00  0.00    -0.061 A 
ATOM     15  C   UNL     1      14.367  -3.557 -21.843  0.00  0.00    -0.062 A 
ATOM     16  C   UNL     1      15.335  -2.871 -21.108  0.00  0.00    -0.061 A 
ATOM     17  C   UNL     1      16.141  -3.555 -20.194  0.00  0.00    -0.049 A 
ENDBRANCH  10  12
BRANCH   9  18
ATOM     18  C   UNL     1      14.043  -6.424 -15.123  0.00  0.00    -0.046 C 
ATOM     19  C   UNL     1      13.312  -7.536 -14.936  0.00  0.00    +0.023 C 
BRANCH  19  20
ATOM     20  C   UNL     1      12.109  -7.668 -14.087  0.00  0.00    +0.332 C 
ATOM     21  O   UNL     1      12.026  -8.546 -13.240  0.00  0.00    -0.246 OA
BRANCH  20  22
ATOM     22  O   UNL     1      11.161  -6.739 -14.363  0.00  0.00    -0.465 OA
ATOM     23  C   UNL     1      10.102  -7.240 -15.185  0.00  0.00    +0.082 C 
ENDBRANCH  20  22
ENDBRANCH  19  20
ENDBRANCH   9  18
TORSDOF 4
ENDMDL
MODEL 3
REMARK VINA RESULT:    -7.679      2.224      5.132
REMARK INTER + INTRA:         -10.076
REMARK INTER:                  -9.898
REMARK INTRA:                  -0.178
REMARK UNBOUND:                -0.601
REMARK  Name = 5d.sdf
REMARK  5 active torsions:
REMARK  status: ('A' for Active; 'I' for Inactive)
REMARK    1  A    between atoms: C_9  and  C_10
REMARK    2  A    between atoms: C_11  and  C_19
REMARK    3  A    between atoms: C_12  and  C_13
REMARK    4  A    between atoms: C_19  and  O_20
REMARK    5  A    between atoms: O_20  and  C_22
REMARK                            x       y       z     vdW  Elec       q    Type
REMARK                         _______ _______ _______ _____ _____    ______ ____
ROOT
ATOM      1  C   UNL     1      19.296  -7.243 -15.765  0.00  0.00    -0.061 A 
ATOM      2  C   UNL     1      18.761  -7.464 -14.503  0.00  0.00    -0.060 A 
ATOM      3  C   UNL     1      17.437  -7.122 -14.218  0.00  0.00    -0.037 A 
ATOM      4  C   UNL     1      16.653  -6.546 -15.236  0.00  0.00    +0.057 A 
ATOM      5  C   UNL     1      17.172  -6.319 -16.519  0.00  0.00    +0.007 A 
ATOM      6  C   UNL     1      18.515  -6.673 -16.776  0.00  0.00    -0.052 A 
ATOM      7  N   UNL     1      15.309  -6.170 -15.247  0.00  0.00    -0.283 N 
ATOM      8  C   UNL     1      15.029  -5.640 -16.499  0.00  0.00    +0.021 A 
ATOM      9  C   UNL     1      16.134  -5.745 -17.311  0.00  0.00    +0.001 A 
ATOM     10  C   UNL     1      14.369  -6.315 -14.193  0.00  0.00    +0.263 C 
ATOM     11  O   UNL     1      14.784  -6.396 -13.040  0.00  0.00    -0.267 OA
ENDROOT
BRANCH  10  12
ATOM     12  C   UNL     1      12.903  -6.377 -14.430  0.00  0.00    +0.040 A 
ATOM     13  C   UNL     1      12.171  -7.485 -13.979  0.00  0.00    -0.049 A 
ATOM     14  C   UNL     1      10.811  -7.585 -14.260  0.00  0.00    -0.061 A 
ATOM     15  C   UNL     1      10.171  -6.563 -14.959  0.00  0.00    -0.062 A 
ATOM     16  C   UNL     1      10.883  -5.428 -15.353  0.00  0.00    -0.061 A 
ATOM     17  C   UNL     1      12.250  -5.326 -15.082  0.00  0.00    -0.049 A 
ENDBRANCH  10  12
BRANCH   9  18
ATOM     18  C   UNL     1      16.207  -5.344 -18.688  0.00  0.00    -0.046 C 
ATOM     19  C   UNL     1      15.161  -5.250 -19.526  0.00  0.00    +0.023 C 
BRANCH  19  20
ATOM     20  C   UNL     1      15.203  -4.848 -20.948  0.00  0.00    +0.332 C 
ATOM     21  O   UNL     1      14.472  -5.374 -21.776  0.00  0.00    -0.246 OA
BRANCH  20  22
ATOM     22  O   UNL     1      16.114  -3.876 -21.197  0.00  0.00    -0.465 OA
ATOM     23  C   UNL     1      15.523  -2.590 -21.411  0.00  0.00    +0.082 C 
ENDBRANCH  20  22
ENDBRANCH  19  20
ENDBRANCH   9  18
TORSDOF 4
ENDMDL
