MODEL 1
REMARK VINA RESULT:    -7.361      0.000      0.000
REMARK INTER + INTRA:         -10.180
REMARK INTER:                  -9.513
REMARK INTRA:                  -0.667
REMARK UNBOUND:                -0.667
REMARK  Name = 7a.sdf
REMARK  6 active torsions:
REMARK  status: ('A' for Active; 'I' for Inactive)
REMARK    1  A    between atoms: N_7  and  C_12
REMARK    2  A    between atoms: C_9  and  C_10
REMARK    3  A    between atoms: C_10  and  C_11
REMARK    4  A    between atoms: C_11  and  O_21
REMARK    5  A    between atoms: C_12  and  C_13
REMARK    6  A    between atoms: O_21  and  C_22
REMARK                            x       y       z     vdW  Elec       q    Type
REMARK                         _______ _______ _______ _____ _____    ______ ____
ROOT
ATOM      1  C   UNL     1      18.692  -7.334 -14.647  0.00  0.00    -0.061 A 
ATOM      2  C   UNL     1      19.036  -7.258 -15.992  0.00  0.00    -0.060 A 
ATOM      3  C   UNL     1      18.117  -6.797 -16.949  0.00  0.00    -0.038 A 
ATOM      4  C   UNL     1      16.823  -6.442 -16.522  0.00  0.00    +0.050 A 
ATOM      5  C   UNL     1      16.482  -6.454 -15.161  0.00  0.00    +0.004 A 
ATOM      6  C   UNL     1      17.432  -6.911 -14.220  0.00  0.00    -0.052 A 
ATOM      7  N   UNL     1      15.682  -6.059 -17.214  0.00  0.00    -0.342 N 
ATOM      8  C   UNL     1      14.692  -5.728 -16.320  0.00  0.00    +0.010 A 
ATOM      9  C   UNL     1      15.152  -5.944 -15.036  0.00  0.00    -0.012 A 
ENDROOT
BRANCH   9  10
ATOM     10  C   UNL     1      14.395  -5.678 -13.770  0.00  0.00    +0.072 C 
BRANCH  10  11
ATOM     11  C   UNL     1      13.971  -6.931 -13.031  0.00  0.00    +0.311 C 
ATOM     12  O   UNL     1      13.044  -7.675 -13.340  0.00  0.00    -0.250 OA
BRANCH  11  13
ATOM     13  O   UNL     1      14.777  -7.118 -11.944  0.00  0.00    -0.468 OA
ATOM     14  C   UNL     1      15.079  -5.908 -11.241  0.00  0.00    +0.082 C 
ENDBRANCH  11  13
ENDBRANCH  10  11
ENDBRANCH   9  10
BRANCH   7  15
ATOM     15  C   UNL     1      15.448  -6.110 -18.661  0.00  0.00    +0.048 C 
BRANCH  15  16
ATOM     16  C   UNL     1      15.888  -4.842 -19.355  0.00  0.00    -0.028 A 
ATOM     17  C   UNL     1      16.768  -3.962 -18.712  0.00  0.00    -0.056 A 
ATOM     18  C   UNL     1      17.013  -2.695 -19.241  0.00  0.00    -0.047 A 
ATOM     19  C   UNL     1      16.407  -2.316 -20.436  0.00  0.00    +0.018 A 
ATOM     20  C   UNL     1      15.622  -3.220 -21.147  0.00  0.00    -0.047 A 
ATOM     21  C   UNL     1      15.365  -4.483 -20.608  0.00  0.00    -0.056 A 
ATOM     22 BR   UNL     1      16.585  -0.538 -21.053  0.00  0.00    -0.050 Br
ENDBRANCH  15  16
ENDBRANCH   7  15
TORSDOF 5
ENDMDL
MODEL 2
REMARK VINA RESULT:    -7.149      1.989      2.580
REMARK INTER + INTRA:          -9.906
REMARK INTER:                  -9.124
REMARK INTRA:                  -0.781
REMARK UNBOUND:                -0.667
REMARK  Name = 7a.sdf
REMARK  6 active torsions:
REMARK  status: ('A' for Active; 'I' for Inactive)
REMARK    1  A    between atoms: N_7  and  C_12
REMARK    2  A    between atoms: C_9  and  C_10
REMARK    3  A    between atoms: C_10  and  C_11
REMARK    4  A    between atoms: C_11  and  O_21
REMARK    5  A    between atoms: C_12  and  C_13
REMARK    6  A    between atoms: O_21  and  C_22
REMARK                            x       y       z     vdW  Elec       q    Type
REMARK                         _______ _______ _______ _____ _____    ______ ____
ROOT
ATOM      1  C   UNL     1      18.357  -5.863 -15.449  0.00  0.00    -0.061 A 
ATOM      2  C   UNL     1      18.240  -6.059 -16.821  0.00  0.00    -0.060 A 
ATOM      3  C   UNL     1      16.981  -6.210 -17.425  0.00  0.00    -0.038 A 
ATOM      4  C   UNL     1      15.836  -6.194 -16.606  0.00  0.00    +0.050 A 
ATOM      5  C   UNL     1      15.934  -5.936 -15.230  0.00  0.00    +0.004 A 
ATOM      6  C   UNL     1      17.214  -5.774 -14.653  0.00  0.00    -0.052 A 
ATOM      7  N   UNL     1      14.492  -6.415 -16.874  0.00  0.00    -0.342 N 
ATOM      8  C   UNL     1      13.754  -6.191 -15.736  0.00  0.00    +0.010 A 
ATOM      9  C   UNL     1      14.608  -5.876 -14.697  0.00  0.00    -0.012 A 
ENDROOT
BRANCH   9  10
ATOM     10  C   UNL     1      14.206  -5.530 -13.297  0.00  0.00    +0.072 C 
BRANCH  10  11
ATOM     11  C   UNL     1      14.514  -6.612 -12.282  0.00  0.00    +0.311 C 
ATOM     12  O   UNL     1      14.941  -6.437 -11.144  0.00  0.00    -0.250 OA
BRANCH  11  13
ATOM     13  O   UNL     1      14.253  -7.838 -12.825  0.00  0.00    -0.468 OA
ATOM     14  C   UNL     1      15.349  -8.755 -12.722  0.00  0.00    +0.082 C 
ENDBRANCH  11  13
ENDBRANCH  10  11
ENDBRANCH   9  10
BRANCH   7  15
ATOM     15  C   UNL     1      13.895  -6.943 -18.105  0.00  0.00    +0.048 C 
BRANCH  15  16
ATOM     16  C   UNL     1      13.610  -5.854 -19.113  0.00  0.00    -0.028 A 
ATOM     17  C   UNL     1      12.324  -5.305 -19.204  0.00  0.00    -0.056 A 
ATOM     18  C   UNL     1      11.989  -4.461 -20.264  0.00  0.00    -0.047 A 
ATOM     19  C   UNL     1      12.951  -4.133 -21.216  0.00  0.00    +0.018 A 
ATOM     20  C   UNL     1      14.263  -4.577 -21.076  0.00  0.00    -0.047 A 
ATOM     21  C   UNL     1      14.593  -5.434 -20.023  0.00  0.00    -0.056 A 
ATOM     22 BR   UNL     1      12.450  -3.149 -22.750  0.00  0.00    -0.050 Br
ENDBRANCH  15  16
ENDBRANCH   7  15
TORSDOF 5
ENDMDL
MODEL 3
REMARK VINA RESULT:    -7.110      2.826      3.853
REMARK INTER + INTRA:          -9.856
REMARK INTER:                  -8.995
REMARK INTRA:                  -0.861
REMARK UNBOUND:                -0.667
REMARK  Name = 7a.sdf
REMARK  6 active torsions:
REMARK  status: ('A' for Active; 'I' for Inactive)
REMARK    1  A    between atoms: N_7  and  C_12
REMARK    2  A    between atoms: C_9  and  C_10
REMARK    3  A    between atoms: C_10  and  C_11
REMARK    4  A    between atoms: C_11  and  O_21
REMARK    5  A    between atoms: C_12  and  C_13
REMARK    6  A    between atoms: O_21  and  C_22
REMARK                            x       y       z     vdW  Elec       q    Type
REMARK                         _______ _______ _______ _____ _____    ______ ____
ROOT
ATOM      1  C   UNL     1      17.938  -5.076 -17.394  0.00  0.00    -0.061 A 
ATOM      2  C   UNL     1      17.014  -5.054 -18.434  0.00  0.00    -0.060 A 
ATOM      3  C   UNL     1      15.717  -5.562 -18.260  0.00  0.00    -0.038 A 
ATOM      4  C   UNL     1      15.378  -6.129 -17.017  0.00  0.00    +0.050 A 
ATOM      5  C   UNL     1      16.278  -6.103 -15.940  0.00  0.00    +0.004 A 
ATOM      6  C   UNL     1      17.571  -5.572 -16.142  0.00  0.00    -0.052 A 
ATOM      7  N   UNL     1      14.243  -6.793 -16.570  0.00  0.00    -0.342 N 
ATOM      8  C   UNL     1      14.373  -7.072 -15.230  0.00  0.00    +0.010 A 
ATOM      9  C   UNL     1      15.613  -6.646 -14.797  0.00  0.00    -0.012 A 
ENDROOT
BRANCH   9  10
ATOM     10  C   UNL     1      16.137  -6.735 -13.396  0.00  0.00    +0.072 C 
BRANCH  10  11
ATOM     11  C   UNL     1      15.331  -7.646 -12.493  0.00  0.00    +0.311 C 
ATOM     12  O   UNL     1      15.360  -8.874 -12.493  0.00  0.00    -0.250 OA
BRANCH  11  13
ATOM     13  O   UNL     1      14.544  -6.896 -11.667  0.00  0.00    -0.468 OA
ATOM     14  C   UNL     1      15.132  -5.644 -11.298  0.00  0.00    +0.082 C 
ENDBRANCH  11  13
ENDBRANCH  10  11
ENDBRANCH   9  10
BRANCH   7  15
ATOM     15  C   UNL     1      13.113  -7.279 -17.367  0.00  0.00    +0.048 C 
BRANCH  15  16
ATOM     16  C   UNL     1      12.136  -6.177 -17.705  0.00  0.00    -0.028 A 
ATOM     17  C   UNL     1      12.007  -5.739 -19.029  0.00  0.00    -0.056 A 
ATOM     18  C   UNL     1      11.278  -4.587 -19.325  0.00  0.00    -0.047 A 
ATOM     19  C   UNL     1      10.643  -3.889 -18.300  0.00  0.00    +0.018 A 
ATOM     20  C   UNL     1      10.665  -4.375 -16.995  0.00  0.00    -0.047 A 
ATOM     21  C   UNL     1      11.409  -5.520 -16.699  0.00  0.00    -0.056 A 
ATOM     22 BR   UNL     1       9.818  -2.229 -18.671  0.00  0.00    -0.050 Br
ENDBRANCH  15  16
ENDBRANCH   7  15
TORSDOF 5
ENDMDL
