MODEL 1
REMARK VINA RESULT:    -7.145      0.000      0.000
REMARK INTER + INTRA:         -10.051
REMARK INTER:                  -9.233
REMARK INTRA:                  -0.818
REMARK UNBOUND:                -0.818
REMARK  Name = 7b.sdf
REMARK  6 active torsions:
REMARK  status: ('A' for Active; 'I' for Inactive)
REMARK    1  A    between atoms: N_7  and  C_12
REMARK    2  A    between atoms: C_9  and  C_10
REMARK    3  A    between atoms: C_10  and  C_11
REMARK    4  A    between atoms: C_11  and  O_20
REMARK    5  A    between atoms: C_12  and  C_13
REMARK    6  A    between atoms: O_20  and  C_21
REMARK                            x       y       z     vdW  Elec       q    Type
REMARK                         _______ _______ _______ _____ _____    ______ ____
ROOT
ATOM      1  C   UNL     1      18.763  -7.353 -14.641  0.00  0.00    -0.061 A 
ATOM      2  C   UNL     1      19.150  -7.288 -15.976  0.00  0.00    -0.060 A 
ATOM      3  C   UNL     1      18.272  -6.822 -16.958  0.00  0.00    -0.038 A 
ATOM      4  C   UNL     1      16.985  -6.422 -16.562  0.00  0.00    +0.050 A 
ATOM      5  C   UNL     1      16.586  -6.439 -15.220  0.00  0.00    +0.004 A 
ATOM      6  C   UNL     1      17.492  -6.921 -14.251  0.00  0.00    -0.052 A 
ATOM      7  N   UNL     1      15.905  -5.969 -17.293  0.00  0.00    -0.342 N 
ATOM      8  C   UNL     1      14.869  -5.643 -16.453  0.00  0.00    +0.010 A 
ATOM      9  C   UNL     1      15.259  -5.907 -15.155  0.00  0.00    -0.012 A 
ENDROOT
BRANCH   9  10
ATOM     10  C   UNL     1      14.438  -5.685 -13.923  0.00  0.00    +0.072 C 
BRANCH  10  11
ATOM     11  C   UNL     1      13.983  -6.975 -13.269  0.00  0.00    +0.311 C 
ATOM     12  O   UNL     1      13.196  -7.795 -13.727  0.00  0.00    -0.250 OA
BRANCH  11  13
ATOM     13  O   UNL     1      14.606  -7.100 -12.057  0.00  0.00    -0.468 OA
ATOM     14  C   UNL     1      15.053  -5.861 -11.505  0.00  0.00    +0.082 C 
ENDBRANCH  11  13
ENDBRANCH  10  11
ENDBRANCH   9  10
BRANCH   7  15
ATOM     15  C   UNL     1      15.816  -5.917 -18.751  0.00  0.00    +0.048 C 
BRANCH  15  16
ATOM     16  C   UNL     1      16.112  -4.568 -19.359  0.00  0.00    -0.025 A 
ATOM     17  C   UNL     1      16.897  -3.588 -18.742  0.00  0.00    -0.039 A 
ATOM     18  C   UNL     1      17.078  -2.372 -19.383  0.00  0.00    +0.028 A 
ATOM     19  N   UNL     1      16.556  -2.071 -20.590  0.00  0.00    -0.263 NA
ATOM     20  C   UNL     1      15.820  -3.031 -21.185  0.00  0.00    +0.028 A 
ATOM     21  C   UNL     1      15.577  -4.274 -20.621  0.00  0.00    -0.039 A 
ENDBRANCH  15  16
ENDBRANCH   7  15
TORSDOF 5
ENDMDL
MODEL 2
REMARK VINA RESULT:    -7.088      3.020      5.945
REMARK INTER + INTRA:          -9.978
REMARK INTER:                  -9.316
REMARK INTRA:                  -0.662
REMARK UNBOUND:                -0.818
REMARK  Name = 7b.sdf
REMARK  6 active torsions:
REMARK  status: ('A' for Active; 'I' for Inactive)
REMARK    1  A    between atoms: N_7  and  C_12
REMARK    2  A    between atoms: C_9  and  C_10
REMARK    3  A    between atoms: C_10  and  C_11
REMARK    4  A    between atoms: C_11  and  O_20
REMARK    5  A    between atoms: C_12  and  C_13
REMARK    6  A    between atoms: O_20  and  C_21
REMARK                            x       y       z     vdW  Elec       q    Type
REMARK                         _______ _______ _______ _____ _____    ______ ____
ROOT
ATOM      1  C   UNL     1      19.069  -7.681 -15.134  0.00  0.00    -0.061 A 
ATOM      2  C   UNL     1      18.294  -8.025 -14.031  0.00  0.00    -0.060 A 
ATOM      3  C   UNL     1      17.029  -7.462 -13.838  0.00  0.00    -0.038 A 
ATOM      4  C   UNL     1      16.561  -6.538 -14.787  0.00  0.00    +0.050 A 
ATOM      5  C   UNL     1      17.305  -6.209 -15.927  0.00  0.00    +0.004 A 
ATOM      6  C   UNL     1      18.581  -6.787 -16.092  0.00  0.00    -0.052 A 
ATOM      7  N   UNL     1      15.397  -5.799 -14.844  0.00  0.00    -0.342 N 
ATOM      8  C   UNL     1      15.357  -5.068 -16.005  0.00  0.00    +0.010 A 
ATOM      9  C   UNL     1      16.518  -5.307 -16.713  0.00  0.00    -0.012 A 
ENDROOT
BRANCH   9  10
ATOM     10  C   UNL     1      16.881  -4.722 -18.041  0.00  0.00    +0.072 C 
BRANCH  10  11
ATOM     11  C   UNL     1      17.048  -5.765 -19.128  0.00  0.00    +0.311 C 
ATOM     12  O   UNL     1      18.102  -6.211 -19.564  0.00  0.00    -0.250 OA
BRANCH  11  13
ATOM     13  O   UNL     1      15.810  -6.158 -19.559  0.00  0.00    -0.468 OA
ATOM     14  C   UNL     1      15.049  -5.112 -20.165  0.00  0.00    +0.082 C 
ENDBRANCH  11  13
ENDBRANCH  10  11
ENDBRANCH   9  10
BRANCH   7  15
ATOM     15  C   UNL     1      14.380  -5.716 -13.797  0.00  0.00    +0.048 C 
BRANCH  15  16
ATOM     16  C   UNL     1      13.033  -6.284 -14.172  0.00  0.00    -0.025 A 
ATOM     17  C   UNL     1      12.135  -5.657 -15.041  0.00  0.00    -0.039 A 
ATOM     18  C   UNL     1      10.911  -6.259 -15.291  0.00  0.00    +0.028 A 
ATOM     19  N   UNL     1      10.528  -7.438 -14.759  0.00  0.00    -0.263 NA
ATOM     20  C   UNL     1      11.411  -8.044 -13.940  0.00  0.00    +0.028 A 
ATOM     21  C   UNL     1      12.655  -7.518 -13.624  0.00  0.00    -0.039 A 
ENDBRANCH  15  16
ENDBRANCH   7  15
TORSDOF 5
ENDMDL
MODEL 3
REMARK VINA RESULT:    -7.035      3.284      5.711
REMARK INTER + INTRA:          -9.910
REMARK INTER:                  -8.986
REMARK INTRA:                  -0.924
REMARK UNBOUND:                -0.818
REMARK  Name = 7b.sdf
REMARK  6 active torsions:
REMARK  status: ('A' for Active; 'I' for Inactive)
REMARK    1  A    between atoms: N_7  and  C_12
REMARK    2  A    between atoms: C_9  and  C_10
REMARK    3  A    between atoms: C_10  and  C_11
REMARK    4  A    between atoms: C_11  and  O_20
REMARK    5  A    between atoms: C_12  and  C_13
REMARK    6  A    between atoms: O_20  and  C_21
REMARK                            x       y       z     vdW  Elec       q    Type
REMARK                         _______ _______ _______ _____ _____    ______ ____
ROOT
ATOM      1  C   UNL     1      16.680  -8.795 -12.966  0.00  0.00    -0.061 A 
ATOM      2  C   UNL     1      15.308  -8.816 -12.738  0.00  0.00    -0.060 A 
ATOM      3  C   UNL     1      14.469  -7.857 -13.313  0.00  0.00    -0.038 A 
ATOM      4  C   UNL     1      15.048  -6.871 -14.128  0.00  0.00    +0.050 A 
ATOM      5  C   UNL     1      16.420  -6.855 -14.407  0.00  0.00    +0.004 A 
ATOM      6  C   UNL     1      17.244  -7.830 -13.806  0.00  0.00    -0.052 A 
ATOM      7  N   UNL     1      14.495  -5.790 -14.784  0.00  0.00    -0.342 N 
ATOM      8  C   UNL     1      15.459  -5.135 -15.511  0.00  0.00    +0.010 A 
ATOM      9  C   UNL     1      16.666  -5.776 -15.315  0.00  0.00    -0.012 A 
ENDROOT
BRANCH   9  10
ATOM     10  C   UNL     1      17.977  -5.399 -15.930  0.00  0.00    +0.072 C 
BRANCH  10  11
ATOM     11  C   UNL     1      18.279  -6.162 -17.205  0.00  0.00    +0.311 C 
ATOM     12  O   UNL     1      18.706  -7.306 -17.295  0.00  0.00    -0.250 OA
BRANCH  11  13
ATOM     13  O   UNL     1      17.986  -5.364 -18.278  0.00  0.00    -0.468 OA
ATOM     14  C   UNL     1      16.870  -5.814 -19.047  0.00  0.00    +0.082 C 
ENDBRANCH  11  13
ENDBRANCH  10  11
ENDBRANCH   9  10
BRANCH   7  15
ATOM     15  C   UNL     1      13.112  -5.330 -14.670  0.00  0.00    +0.048 C 
BRANCH  15  16
ATOM     16  C   UNL     1      12.104  -6.153 -15.433  0.00  0.00    -0.025 A 
ATOM     17  C   UNL     1      12.264  -6.549 -16.765  0.00  0.00    -0.039 A 
ATOM     18  C   UNL     1      11.256  -7.281 -17.374  0.00  0.00    +0.028 A 
ATOM     19  N   UNL     1      10.120  -7.660 -16.754  0.00  0.00    -0.263 NA
ATOM     20  C   UNL     1       9.985  -7.291 -15.465  0.00  0.00    +0.028 A 
ATOM     21  C   UNL     1      10.934  -6.554 -14.772  0.00  0.00    -0.039 A 
ENDBRANCH  15  16
ENDBRANCH   7  15
TORSDOF 5
ENDMDL
