MODEL 1
REMARK VINA RESULT:    -8.002      0.000      0.000
REMARK INTER + INTRA:         -10.048
REMARK INTER:                  -9.873
REMARK INTRA:                  -0.175
REMARK UNBOUND:                -0.175
REMARK  Name = 7d.sdf
REMARK  5 active torsions:
REMARK  status: ('A' for Active; 'I' for Inactive)
REMARK    1  A    between atoms: C_9  and  C_10
REMARK    2  A    between atoms: C_10  and  C_11
REMARK    3  A    between atoms: C_11  and  O_20
REMARK    4  A    between atoms: C_12  and  C_13
REMARK    5  A    between atoms: O_20  and  C_22
REMARK                            x       y       z     vdW  Elec       q    Type
REMARK                         _______ _______ _______ _____ _____    ______ ____
ROOT
ATOM      1  C   UNL     1      19.070  -7.612 -15.001  0.00  0.00    -0.061 A 
ATOM      2  C   UNL     1      18.285  -8.021 -13.930  0.00  0.00    -0.060 A 
ATOM      3  C   UNL     1      16.971  -7.563 -13.788  0.00  0.00    -0.037 A 
ATOM      4  C   UNL     1      16.460  -6.671 -14.750  0.00  0.00    +0.057 A 
ATOM      5  C   UNL     1      17.234  -6.257 -15.844  0.00  0.00    +0.004 A 
ATOM      6  C   UNL     1      18.557  -6.736 -15.961  0.00  0.00    -0.052 A 
ATOM      7  N   UNL     1      15.191  -6.113 -14.894  0.00  0.00    -0.283 N 
ATOM      8  C   UNL     1      15.225  -5.269 -15.989  0.00  0.00    +0.018 A 
ATOM      9  C   UNL     1      16.432  -5.388 -16.643  0.00  0.00    -0.011 A 
ATOM     10  C   UNL     1      14.041  -6.352 -14.100  0.00  0.00    +0.263 C 
ATOM     11  O   UNL     1      14.191  -6.750 -12.948  0.00  0.00    -0.267 OA
ENDROOT
BRANCH  10  12
ATOM     12  C   UNL     1      12.664  -6.137 -14.617  0.00  0.00    +0.040 A 
ATOM     13  C   UNL     1      11.714  -7.164 -14.519  0.00  0.00    -0.049 A 
ATOM     14  C   UNL     1      10.440  -6.992 -15.059  0.00  0.00    -0.061 A 
ATOM     15  C   UNL     1      10.104  -5.787 -15.671  0.00  0.00    -0.062 A 
ATOM     16  C   UNL     1      11.033  -4.744 -15.725  0.00  0.00    -0.061 A 
ATOM     17  C   UNL     1      12.316  -4.911 -15.190  0.00  0.00    -0.049 A 
ENDBRANCH  10  12
BRANCH   9  18
ATOM     18  C   UNL     1      16.796  -4.713 -17.930  0.00  0.00    +0.072 C 
BRANCH  18  19
ATOM     19  C   UNL     1      17.000  -5.694 -19.075  0.00  0.00    +0.311 C 
ATOM     20  O   UNL     1      18.071  -6.060 -19.540  0.00  0.00    -0.250 OA
BRANCH  19  21
ATOM     21  O   UNL     1      15.781  -6.135 -19.511  0.00  0.00    -0.468 OA
ATOM     22  C   UNL     1      15.065  -5.169 -20.284  0.00  0.00    +0.082 C 
ENDBRANCH  19  21
ENDBRANCH  18  19
ENDBRANCH   9  18
TORSDOF 4
ENDMDL
MODEL 2
REMARK VINA RESULT:    -7.865      1.796      4.504
REMARK INTER + INTRA:          -9.879
REMARK INTER:                  -9.322
REMARK INTRA:                  -0.557
REMARK UNBOUND:                -0.175
REMARK  Name = 7d.sdf
REMARK  5 active torsions:
REMARK  status: ('A' for Active; 'I' for Inactive)
REMARK    1  A    between atoms: C_9  and  C_10
REMARK    2  A    between atoms: C_10  and  C_11
REMARK    3  A    between atoms: C_11  and  O_20
REMARK    4  A    between atoms: C_12  and  C_13
REMARK    5  A    between atoms: O_20  and  C_22
REMARK                            x       y       z     vdW  Elec       q    Type
REMARK                         _______ _______ _______ _____ _____    ______ ____
ROOT
ATOM      1  C   UNL     1      18.696  -5.272 -16.961  0.00  0.00    -0.061 A 
ATOM      2  C   UNL     1      17.922  -5.058 -18.094  0.00  0.00    -0.060 A 
ATOM      3  C   UNL     1      16.565  -5.397 -18.111  0.00  0.00    -0.037 A 
ATOM      4  C   UNL     1      15.999  -5.968 -16.957  0.00  0.00    +0.057 A 
ATOM      5  C   UNL     1      16.762  -6.183 -15.799  0.00  0.00    +0.004 A 
ATOM      6  C   UNL     1      18.129  -5.829 -15.812  0.00  0.00    -0.052 A 
ATOM      7  N   UNL     1      14.685  -6.340 -16.672  0.00  0.00    -0.283 N 
ATOM      8  C   UNL     1      14.670  -6.890 -15.403  0.00  0.00    +0.018 A 
ATOM      9  C   UNL     1      15.903  -6.741 -14.806  0.00  0.00    -0.011 A 
ATOM     10  C   UNL     1      13.541  -6.182 -17.493  0.00  0.00    +0.263 C 
ATOM     11  O   UNL     1      13.693  -6.095 -18.708  0.00  0.00    -0.267 OA
ENDROOT
BRANCH  10  12
ATOM     12  C   UNL     1      12.166  -6.120 -16.930  0.00  0.00    +0.040 A 
ATOM     13  C   UNL     1      11.680  -4.914 -16.406  0.00  0.00    -0.049 A 
ATOM     14  C   UNL     1      10.417  -4.865 -15.819  0.00  0.00    -0.061 A 
ATOM     15  C   UNL     1       9.626  -6.011 -15.780  0.00  0.00    -0.062 A 
ATOM     16  C   UNL     1      10.087  -7.202 -16.347  0.00  0.00    -0.061 A 
ATOM     17  C   UNL     1      11.358  -7.261 -16.933  0.00  0.00    -0.049 A 
ENDBRANCH  10  12
BRANCH   9  18
ATOM     18  C   UNL     1      16.239  -7.116 -13.395  0.00  0.00    +0.072 C 
BRANCH  18  19
ATOM     19  C   UNL     1      15.111  -7.859 -12.696  0.00  0.00    +0.311 C 
ATOM     20  O   UNL     1      14.948  -9.071 -12.659  0.00  0.00    -0.250 OA
BRANCH  19  21
ATOM     21  O   UNL     1      14.292  -6.953 -12.080  0.00  0.00    -0.468 OA
ATOM     22  C   UNL     1      14.945  -6.185 -11.067  0.00  0.00    +0.082 C 
ENDBRANCH  19  21
ENDBRANCH  18  19
ENDBRANCH   9  18
TORSDOF 4
ENDMDL
MODEL 3
REMARK VINA RESULT:    -7.521      2.547      4.983
REMARK INTER + INTRA:          -9.455
REMARK INTER:                  -8.886
REMARK INTRA:                  -0.569
REMARK UNBOUND:                -0.175
REMARK  Name = 7d.sdf
REMARK  5 active torsions:
REMARK  status: ('A' for Active; 'I' for Inactive)
REMARK    1  A    between atoms: C_9  and  C_10
REMARK    2  A    between atoms: C_10  and  C_11
REMARK    3  A    between atoms: C_11  and  O_20
REMARK    4  A    between atoms: C_12  and  C_13
REMARK    5  A    between atoms: O_20  and  C_22
REMARK                            x       y       z     vdW  Elec       q    Type
REMARK                         _______ _______ _______ _____ _____    ______ ____
ROOT
ATOM      1  C   UNL     1      10.740  -4.838 -19.728  0.00  0.00    -0.061 A 
ATOM      2  C   UNL     1       9.992  -5.098 -18.587  0.00  0.00    -0.060 A 
ATOM      3  C   UNL     1      10.573  -5.709 -17.472  0.00  0.00    -0.037 A 
ATOM      4  C   UNL     1      11.933  -6.065 -17.531  0.00  0.00    +0.057 A 
ATOM      5  C   UNL     1      12.707  -5.801 -18.670  0.00  0.00    +0.004 A 
ATOM      6  C   UNL     1      12.093  -5.181 -19.780  0.00  0.00    -0.052 A 
ATOM      7  N   UNL     1      12.775  -6.619 -16.567  0.00  0.00    -0.283 N 
ATOM      8  C   UNL     1      14.015  -6.807 -17.150  0.00  0.00    +0.018 A 
ATOM      9  C   UNL     1      14.037  -6.248 -18.409  0.00  0.00    -0.011 A 
ATOM     10  C   UNL     1      12.466  -6.929 -15.219  0.00  0.00    +0.263 C 
ATOM     11  O   UNL     1      11.294  -7.134 -14.914  0.00  0.00    -0.267 OA
ENDROOT
BRANCH  10  12
ATOM     12  C   UNL     1      13.512  -7.015 -14.166  0.00  0.00    +0.040 A 
ATOM     13  C   UNL     1      14.053  -8.262 -13.820  0.00  0.00    -0.049 A 
ATOM     14  C   UNL     1      14.987  -8.357 -12.790  0.00  0.00    -0.061 A 
ATOM     15  C   UNL     1      15.404  -7.207 -12.124  0.00  0.00    -0.062 A 
ATOM     16  C   UNL     1      14.904  -5.957 -12.501  0.00  0.00    -0.061 A 
ATOM     17  C   UNL     1      13.961  -5.854 -13.531  0.00  0.00    -0.049 A 
ENDBRANCH  10  12
BRANCH   9  18
ATOM     18  C   UNL     1      15.236  -6.160 -19.302  0.00  0.00    +0.072 C 
BRANCH  18  19
ATOM     19  C   UNL     1      16.138  -4.981 -18.967  0.00  0.00    +0.311 C 
ATOM     20  O   UNL     1      16.457  -4.602 -17.848  0.00  0.00    -0.250 OA
BRANCH  19  21
ATOM     21  O   UNL     1      16.566  -4.399 -20.128  0.00  0.00    -0.468 OA
ATOM     22  C   UNL     1      15.503  -3.993 -20.993  0.00  0.00    +0.082 C 
ENDBRANCH  19  21
ENDBRANCH  18  19
ENDBRANCH   9  18
TORSDOF 4
ENDMDL
