MODEL 1
REMARK VINA RESULT:    -8.167      0.000      0.000
REMARK INTER + INTRA:         -10.856
REMARK INTER:                 -10.554
REMARK INTRA:                  -0.302
REMARK UNBOUND:                -0.302
REMARK  Name = 8b.sdf
REMARK  5 active torsions:
REMARK  status: ('A' for Active; 'I' for Inactive)
REMARK    1  A    between atoms: N_7  and  C_12
REMARK    2  A    between atoms: C_9  and  C_10
REMARK    3  A    between atoms: N_11  and  N_19
REMARK    4  A    between atoms: C_12  and  C_13
REMARK    5  A    between atoms: C_20  and  C_22
REMARK                            x       y       z     vdW  Elec       q    Type
REMARK                         _______ _______ _______ _____ _____    ______ ____
ROOT
ATOM      1  C   UNL     1      18.845  -7.511 -15.152  0.00  0.00    -0.061 A 
ATOM      2  C   UNL     1      18.160  -8.020 -14.055  0.00  0.00    -0.060 A 
ATOM      3  C   UNL     1      16.826  -7.671 -13.812  0.00  0.00    -0.038 A 
ATOM      4  C   UNL     1      16.191  -6.791 -14.706  0.00  0.00    +0.050 A 
ATOM      5  C   UNL     1      16.847  -6.312 -15.849  0.00  0.00    +0.009 A 
ATOM      6  C   UNL     1      18.196  -6.672 -16.060  0.00  0.00    -0.052 A 
ATOM      7  N   UNL     1      14.931  -6.219 -14.698  0.00  0.00    -0.342 N 
ATOM      8  C   UNL     1      14.754  -5.474 -15.837  0.00  0.00    +0.015 A 
ATOM      9  C   UNL     1      15.912  -5.522 -16.587  0.00  0.00    +0.020 A 
ENDROOT
BRANCH   9  10
ATOM     10  C   UNL     1      16.122  -4.885 -17.871  0.00  0.00    +0.055 C 
ATOM     11  N   UNL     1      15.988  -5.575 -18.959  0.00  0.00    -0.187 NA
BRANCH  11  12
ATOM     12  N   UNL     1      16.219  -4.903 -20.125  0.00  0.00    -0.203 N 
ATOM     13  C   UNL     1      15.141  -4.412 -20.855  0.00  0.00    +0.263 C 
ATOM     14  O   UNL     1      13.964  -4.515 -20.535  0.00  0.00    -0.268 OA
ATOM     15  H   UNL     1      17.140  -4.766 -20.445  0.00  0.00    +0.000 HD
BRANCH  13  16
ATOM     16  C   UNL     1      15.492  -3.670 -22.101  0.00  0.00    +0.038 A 
ATOM     17  C   UNL     1      15.431  -4.258 -23.372  0.00  0.00    -0.049 A 
ATOM     18  C   UNL     1      15.786  -3.520 -24.506  0.00  0.00    -0.047 A 
ATOM     19  C   UNL     1      16.193  -2.192 -24.371  0.00  0.00    +0.018 A 
ATOM     20  C   UNL     1      16.230  -1.588 -23.117  0.00  0.00    -0.047 A 
ATOM     21  C   UNL     1      15.875  -2.326 -21.983  0.00  0.00    -0.049 A 
ATOM     22 BR   UNL     1      16.689  -1.203 -25.904  0.00  0.00    -0.050 Br
ENDBRANCH  13  16
ENDBRANCH  11  12
ENDBRANCH   9  10
BRANCH   7  23
ATOM     23  C   UNL     1      13.958  -6.262 -13.608  0.00  0.00    +0.048 C 
BRANCH  23  24
ATOM     24  C   UNL     1      12.592  -6.683 -14.082  0.00  0.00    -0.025 A 
ATOM     25  C   UNL     1      12.005  -7.863 -13.616  0.00  0.00    -0.039 A 
ATOM     26  C   UNL     1      10.781  -8.251 -14.139  0.00  0.00    +0.028 A 
ATOM     27  N   UNL     1      10.101  -7.543 -15.062  0.00  0.00    -0.263 NA
ATOM     28  C   UNL     1      10.668  -6.393 -15.482  0.00  0.00    +0.028 A 
ATOM     29  C   UNL     1      11.891  -5.925 -15.026  0.00  0.00    -0.039 A 
ENDBRANCH  23  24
ENDBRANCH   7  23
TORSDOF 5
ENDMDL
MODEL 2
REMARK VINA RESULT:    -7.860      2.070      2.689
REMARK INTER + INTRA:         -10.459
REMARK INTER:                  -9.782
REMARK INTRA:                  -0.678
REMARK UNBOUND:                -0.302
REMARK  Name = 8b.sdf
REMARK  5 active torsions:
REMARK  status: ('A' for Active; 'I' for Inactive)
REMARK    1  A    between atoms: N_7  and  C_12
REMARK    2  A    between atoms: C_9  and  C_10
REMARK    3  A    between atoms: N_11  and  N_19
REMARK    4  A    between atoms: C_12  and  C_13
REMARK    5  A    between atoms: C_20  and  C_22
REMARK                            x       y       z     vdW  Elec       q    Type
REMARK                         _______ _______ _______ _____ _____    ______ ____
ROOT
ATOM      1  C   UNL     1      19.755  -6.144 -15.773  0.00  0.00    -0.061 A 
ATOM      2  C   UNL     1      19.232  -7.125 -14.938  0.00  0.00    -0.060 A 
ATOM      3  C   UNL     1      17.862  -7.412 -14.933  0.00  0.00    -0.038 A 
ATOM      4  C   UNL     1      17.022  -6.683 -15.793  0.00  0.00    +0.050 A 
ATOM      5  C   UNL     1      17.538  -5.730 -16.683  0.00  0.00    +0.009 A 
ATOM      6  C   UNL     1      18.923  -5.454 -16.657  0.00  0.00    -0.052 A 
ATOM      7  N   UNL     1      15.649  -6.689 -15.964  0.00  0.00    -0.342 N 
ATOM      8  C   UNL     1      15.306  -5.838 -16.985  0.00  0.00    +0.015 A 
ATOM      9  C   UNL     1      16.451  -5.239 -17.471  0.00  0.00    +0.020 A 
ENDROOT
BRANCH   9  10
ATOM     10  C   UNL     1      16.518  -4.294 -18.567  0.00  0.00    +0.055 C 
ATOM     11  N   UNL     1      15.978  -4.592 -19.705  0.00  0.00    -0.187 NA
BRANCH  11  12
ATOM     12  N   UNL     1      16.100  -3.654 -20.689  0.00  0.00    -0.203 N 
ATOM     13  C   UNL     1      15.423  -3.832 -21.891  0.00  0.00    +0.263 C 
ATOM     14  O   UNL     1      14.690  -4.776 -22.157  0.00  0.00    -0.268 OA
ATOM     15  H   UNL     1      16.662  -2.857 -20.549  0.00  0.00    +0.000 HD
BRANCH  13  16
ATOM     16  C   UNL     1      15.596  -2.743 -22.896  0.00  0.00    +0.038 A 
ATOM     17  C   UNL     1      15.708  -2.995 -24.270  0.00  0.00    -0.049 A 
ATOM     18  C   UNL     1      15.884  -1.935 -25.166  0.00  0.00    -0.047 A 
ATOM     19  C   UNL     1      15.939  -0.624 -24.691  0.00  0.00    +0.018 A 
ATOM     20  C   UNL     1      15.801  -0.359 -23.331  0.00  0.00    -0.047 A 
ATOM     21  C   UNL     1      15.625  -1.418 -22.435  0.00  0.00    -0.049 A 
ATOM     22 BR   UNL     1      16.197   0.803 -25.904  0.00  0.00    -0.050 Br
ENDBRANCH  13  16
ENDBRANCH  11  12
ENDBRANCH   9  10
BRANCH   7  23
ATOM     23  C   UNL     1      14.666  -7.372 -15.124  0.00  0.00    +0.048 C 
BRANCH  23  24
ATOM     24  C   UNL     1      14.839  -7.042 -13.665  0.00  0.00    -0.025 A 
ATOM     25  C   UNL     1      14.640  -5.739 -13.197  0.00  0.00    -0.039 A 
ATOM     26  C   UNL     1      14.886  -5.465 -11.861  0.00  0.00    +0.028 A 
ATOM     27  N   UNL     1      15.289  -6.390 -10.967  0.00  0.00    -0.263 NA
ATOM     28  C   UNL     1      15.452  -7.648 -11.429  0.00  0.00    +0.028 A 
ATOM     29  C   UNL     1      15.238  -8.019 -12.747  0.00  0.00    -0.039 A 
ENDBRANCH  23  24
ENDBRANCH   7  23
TORSDOF 5
ENDMDL
MODEL 3
REMARK VINA RESULT:    -7.648      4.146      6.332
REMARK INTER + INTRA:         -10.185
REMARK INTER:                  -9.589
REMARK INTRA:                  -0.596
REMARK UNBOUND:                -0.302
REMARK  Name = 8b.sdf
REMARK  5 active torsions:
REMARK  status: ('A' for Active; 'I' for Inactive)
REMARK    1  A    between atoms: N_7  and  C_12
REMARK    2  A    between atoms: C_9  and  C_10
REMARK    3  A    between atoms: N_11  and  N_19
REMARK    4  A    between atoms: C_12  and  C_13
REMARK    5  A    between atoms: C_20  and  C_22
REMARK                            x       y       z     vdW  Elec       q    Type
REMARK                         _______ _______ _______ _____ _____    ______ ____
ROOT
ATOM      1  C   UNL     1      13.888  -8.794 -13.153  0.00  0.00    -0.061 A 
ATOM      2  C   UNL     1      15.233  -8.841 -12.806  0.00  0.00    -0.060 A 
ATOM      3  C   UNL     1      16.160  -7.970 -13.391  0.00  0.00    -0.038 A 
ATOM      4  C   UNL     1      15.699  -7.042 -14.341  0.00  0.00    +0.050 A 
ATOM      5  C   UNL     1      14.338  -6.941 -14.662  0.00  0.00    +0.009 A 
ATOM      6  C   UNL     1      13.429  -7.842 -14.065  0.00  0.00    -0.052 A 
ATOM      7  N   UNL     1      16.366  -6.117 -15.125  0.00  0.00    -0.342 N 
ATOM      8  C   UNL     1      15.459  -5.390 -15.855  0.00  0.00    +0.015 A 
ATOM      9  C   UNL     1      14.188  -5.857 -15.582  0.00  0.00    +0.020 A 
ENDROOT
BRANCH   9  10
ATOM     10  C   UNL     1      12.953  -5.337 -16.132  0.00  0.00    +0.055 C 
ATOM     11  N   UNL     1      12.545  -5.746 -17.291  0.00  0.00    -0.187 NA
BRANCH  11  12
ATOM     12  N   UNL     1      11.381  -5.194 -17.743  0.00  0.00    -0.203 N 
ATOM     13  C   UNL     1      11.330  -4.665 -19.029  0.00  0.00    +0.263 C 
ATOM     14  O   UNL     1      12.257  -4.657 -19.828  0.00  0.00    -0.268 OA
ATOM     15  H   UNL     1      10.584  -5.172 -17.165  0.00  0.00    +0.000 HD
BRANCH  13  16
ATOM     16  C   UNL     1      10.010  -4.107 -19.444  0.00  0.00    +0.038 A 
ATOM     17  C   UNL     1       8.939  -4.920 -19.840  0.00  0.00    -0.049 A 
ATOM     18  C   UNL     1       7.727  -4.342 -20.233  0.00  0.00    -0.047 A 
ATOM     19  C   UNL     1       7.582  -2.954 -20.221  0.00  0.00    +0.018 A 
ATOM     20  C   UNL     1       8.629  -2.138 -19.802  0.00  0.00    -0.047 A 
ATOM     21  C   UNL     1       9.841  -2.715 -19.409  0.00  0.00    -0.049 A 
ATOM     22 BR   UNL     1       5.949  -2.177 -20.771  0.00  0.00    -0.050 Br
ENDBRANCH  13  16
ENDBRANCH  11  12
ENDBRANCH   9  10
BRANCH   7  23
ATOM     23  C   UNL     1      17.813  -5.990 -15.287  0.00  0.00    +0.048 C 
BRANCH  23  24
ATOM     24  C   UNL     1      18.286  -6.534 -16.609  0.00  0.00    -0.025 A 
ATOM     25  C   UNL     1      17.922  -5.916 -17.810  0.00  0.00    -0.039 A 
ATOM     26  C   UNL     1      18.315  -6.497 -19.005  0.00  0.00    +0.028 A 
ATOM     27  N   UNL     1      19.055  -7.621 -19.086  0.00  0.00    -0.263 NA
ATOM     28  C   UNL     1      19.420  -8.191 -17.918  0.00  0.00    +0.028 A 
ATOM     29  C   UNL     1      19.070  -7.691 -16.674  0.00  0.00    -0.039 A 
ENDBRANCH  23  24
ENDBRANCH   7  23
TORSDOF 5
ENDMDL
