MODEL 1
REMARK VINA RESULT:    -6.965      0.000      0.000
REMARK INTER + INTRA:          -9.082
REMARK INTER:                  -8.594
REMARK INTRA:                  -0.488
REMARK UNBOUND:                -0.488
REMARK  Name = native.pdb
REMARK  6 active torsions:
REMARK  status: ('A' for Active; 'I' for Inactive)
REMARK    1  A    between atoms: O5*_1  and  C5*_2
REMARK    2  A    between atoms: C5*_2  and  C4*_3
REMARK    3  A    between atoms: C1*_5  and  N_6
REMARK    4  A    between atoms: C_10  and  N_15
REMARK    5  A    between atoms: C2*_16  and  O2*_17
REMARK    6  A    between atoms: C3*_18  and  O3*_19
REMARK                            x       y       z     vdW  Elec       q    Type
REMARK                         _______ _______ _______ _____ _____    ______ ____
ROOT
ATOM      1  N   UNL     1      13.915  -6.106 -17.100  0.00  0.00    -0.302 N 
ATOM      2  C   UNL     1      14.509  -6.384 -15.890  0.00  0.00    +0.023 A 
ATOM      3  C   UNL     1      15.866  -6.256 -16.057  0.00  0.00    +0.044 A 
ATOM      4  C   UNL     1      16.136  -5.901 -17.402  0.00  0.00    +0.071 A 
ATOM      5  C   UNL     1      17.262  -5.628 -18.199  0.00  0.00    +0.130 A 
ATOM      6  N   UNL     1      17.077  -5.274 -19.486  0.00  0.00    -0.220 NA
ATOM      7  C   UNL     1      15.820  -5.214 -19.959  0.00  0.00    +0.120 A 
ATOM      8  N   UNL     1      14.671  -5.449 -19.301  0.00  0.00    -0.218 NA
ATOM      9  C   UNL     1      14.893  -5.799 -18.023  0.00  0.00    +0.149 A 
ATOM     10  I   UNL     1      17.207  -6.509 -14.554  0.00  0.00    -0.041 I 
ENDROOT
BRANCH   1  13
ATOM     11  C4* UNL     1      10.648  -6.403 -15.921  0.00  0.00    +0.113 C 
ATOM     12  O4* UNL     1      11.780  -5.550 -16.210  0.00  0.00    -0.346 OA
ATOM     13  C1* UNL     1      12.484  -6.076 -17.372  0.00  0.00    +0.165 C 
ATOM     14  C2* UNL     1      11.868  -7.438 -17.707  0.00  0.00    +0.129 C 
ATOM     15  C3* UNL     1      10.460  -7.283 -17.149  0.00  0.00    +0.114 C 
BRANCH  14  16
ATOM     16  O2* UNL     1      11.819  -7.719 -19.108  0.00  0.00    -0.385 OA
ATOM     17  H   UNL     1      12.449  -7.147 -19.576  0.00  0.00    +0.000 HD
ENDBRANCH  14  16
BRANCH  15  18
ATOM     18  O3* UNL     1       9.657  -6.599 -18.140  0.00  0.00    -0.386 OA
ATOM     19  H   UNL     1       9.548  -5.670 -17.883  0.00  0.00    +0.000 HD
ENDBRANCH  15  18
BRANCH  11  20
ATOM     20  C5* UNL     1      10.872  -7.179 -14.618  0.00  0.00    +0.073 C 
BRANCH  20  21
ATOM     21  O5* UNL     1       9.917  -8.215 -14.447  0.00  0.00    -0.392 OA
ATOM     22  H   UNL     1       9.065  -7.830 -14.191  0.00  0.00    +0.000 HD
ENDBRANCH  20  21
ENDBRANCH  11  20
ENDBRANCH   1  13
BRANCH   5  23
ATOM     23  N   UNL     1      18.571  -5.687 -17.750  0.00  0.00    -0.343 N 
ATOM     24  H   UNL     1      18.886  -6.475 -17.250  0.00  0.00    +0.000 HD
ATOM     25  H   UNL     1      19.188  -4.941 -17.931  0.00  0.00    +0.000 HD
ENDBRANCH   5  23
TORSDOF 6
ENDMDL
MODEL 2
REMARK VINA RESULT:    -6.775      2.570      4.023
REMARK INTER + INTRA:          -8.848
REMARK INTER:                  -8.245
REMARK INTRA:                  -0.603
REMARK UNBOUND:                -0.488
REMARK  Name = native.pdb
REMARK  6 active torsions:
REMARK  status: ('A' for Active; 'I' for Inactive)
REMARK    1  A    between atoms: O5*_1  and  C5*_2
REMARK    2  A    between atoms: C5*_2  and  C4*_3
REMARK    3  A    between atoms: C1*_5  and  N_6
REMARK    4  A    between atoms: C_10  and  N_15
REMARK    5  A    between atoms: C2*_16  and  O2*_17
REMARK    6  A    between atoms: C3*_18  and  O3*_19
REMARK                            x       y       z     vdW  Elec       q    Type
REMARK                         _______ _______ _______ _____ _____    ______ ____
ROOT
ATOM      1  N   UNL     1      13.606  -7.065 -15.423  0.00  0.00    -0.302 N 
ATOM      2  C   UNL     1      14.161  -6.195 -16.333  0.00  0.00    +0.023 A 
ATOM      3  C   UNL     1      15.496  -6.079 -16.033  0.00  0.00    +0.044 A 
ATOM      4  C   UNL     1      15.788  -6.883 -14.904  0.00  0.00    +0.071 A 
ATOM      5  C   UNL     1      16.909  -7.203 -14.118  0.00  0.00    +0.130 A 
ATOM      6  N   UNL     1      16.766  -8.082 -13.107  0.00  0.00    -0.220 NA
ATOM      7  C   UNL     1      15.548  -8.604 -12.881  0.00  0.00    +0.120 A 
ATOM      8  N   UNL     1      14.408  -8.379 -13.557  0.00  0.00    -0.218 NA
ATOM      9  C   UNL     1      14.588  -7.500 -14.557  0.00  0.00    +0.149 A 
ATOM     10  I   UNL     1      16.790  -4.947 -17.112  0.00  0.00    -0.041 I 
ENDROOT
BRANCH   1  13
ATOM     11  C4* UNL     1      10.285  -6.565 -16.358  0.00  0.00    +0.113 C 
ATOM     12  O4* UNL     1      11.569  -7.164 -16.649  0.00  0.00    -0.346 OA
ATOM     13  C1* UNL     1      12.221  -7.517 -15.394  0.00  0.00    +0.165 C 
ATOM     14  C2* UNL     1      11.381  -6.929 -14.257  0.00  0.00    +0.129 C 
ATOM     15  C3* UNL     1       9.999  -6.871 -14.894  0.00  0.00    +0.114 C 
BRANCH  14  16
ATOM     16  O2* UNL     1      11.351  -7.745 -13.082  0.00  0.00    -0.385 OA
ATOM     17  H   UNL     1      10.581  -8.334 -13.116  0.00  0.00    +0.000 HD
ENDBRANCH  14  16
BRANCH  15  18
ATOM     18  O3* UNL     1       9.388  -8.177 -14.764  0.00  0.00    -0.386 OA
ATOM     19  H   UNL     1       9.470  -8.482 -13.848  0.00  0.00    +0.000 HD
ENDBRANCH  15  18
BRANCH  11  20
ATOM     20  C5* UNL     1      10.295  -5.070 -16.699  0.00  0.00    +0.073 C 
BRANCH  20  21
ATOM     21  O5* UNL     1       9.649  -4.294 -15.700  0.00  0.00    -0.392 OA
ATOM     22  H   UNL     1       8.807  -3.960 -16.045  0.00  0.00    +0.000 HD
ENDBRANCH  20  21
ENDBRANCH  11  20
ENDBRANCH   1  13
BRANCH   5  23
ATOM     23  N   UNL     1      18.178  -6.679 -14.314  0.00  0.00    -0.343 N 
ATOM     24  H   UNL     1      18.468  -5.888 -13.807  0.00  0.00    +0.000 HD
ATOM     25  H   UNL     1      18.788  -7.100 -14.963  0.00  0.00    +0.000 HD
ENDBRANCH   5  23
TORSDOF 6
ENDMDL
MODEL 3
REMARK VINA RESULT:    -6.765      3.457      5.659
REMARK INTER + INTRA:          -8.835
REMARK INTER:                  -8.265
REMARK INTRA:                  -0.570
REMARK UNBOUND:                -0.488
REMARK  Name = native.pdb
REMARK  6 active torsions:
REMARK  status: ('A' for Active; 'I' for Inactive)
REMARK    1  A    between atoms: O5*_1  and  C5*_2
REMARK    2  A    between atoms: C5*_2  and  C4*_3
REMARK    3  A    between atoms: C1*_5  and  N_6
REMARK    4  A    between atoms: C_10  and  N_15
REMARK    5  A    between atoms: C2*_16  and  O2*_17
REMARK    6  A    between atoms: C3*_18  and  O3*_19
REMARK                            x       y       z     vdW  Elec       q    Type
REMARK                         _______ _______ _______ _____ _____    ______ ____
ROOT
ATOM      1  N   UNL     1      14.109  -6.519 -15.892  0.00  0.00    -0.302 N 
ATOM      2  C   UNL     1      14.925  -6.153 -16.938  0.00  0.00    +0.023 A 
ATOM      3  C   UNL     1      14.159  -6.152 -18.078  0.00  0.00    +0.044 A 
ATOM      4  C   UNL     1      12.835  -6.534 -17.748  0.00  0.00    +0.071 A 
ATOM      5  C   UNL     1      11.612  -6.725 -18.414  0.00  0.00    +0.130 A 
ATOM      6  N   UNL     1      10.527  -7.071 -17.694  0.00  0.00    -0.220 NA
ATOM      7  C   UNL     1      10.665  -7.237 -16.367  0.00  0.00    +0.120 A 
ATOM      8  N   UNL     1      11.773  -7.086 -15.621  0.00  0.00    -0.218 NA
ATOM      9  C   UNL     1      12.834  -6.740 -16.370  0.00  0.00    +0.149 A 
ATOM     10  I   UNL     1      14.875  -5.629 -19.905  0.00  0.00    -0.041 I 
ENDROOT
BRANCH   1  13
ATOM     11  C4* UNL     1      16.616  -6.920 -13.504  0.00  0.00    +0.113 C 
ATOM     12  O4* UNL     1      15.816  -6.025 -14.310  0.00  0.00    -0.346 OA
ATOM     13  C1* UNL     1      14.491  -6.607 -14.489  0.00  0.00    +0.165 C 
ATOM     14  C2* UNL     1      14.533  -8.030 -13.925  0.00  0.00    +0.129 C 
ATOM     15  C3* UNL     1      15.643  -7.917 -12.889  0.00  0.00    +0.114 C 
BRANCH  14  16
ATOM     16  O2* UNL     1      13.312  -8.438 -13.302  0.00  0.00    -0.385 OA
ATOM     17  H   UNL     1      13.423  -9.325 -12.924  0.00  0.00    +0.000 HD
ENDBRANCH  14  16
BRANCH  15  18
ATOM     18  O3* UNL     1      15.072  -7.379 -11.674  0.00  0.00    -0.386 OA
ATOM     19  H   UNL     1      15.744  -7.372 -10.975  0.00  0.00    +0.000 HD
ENDBRANCH  15  18
BRANCH  11  20
ATOM     20  C5* UNL     1      17.727  -7.560 -14.345  0.00  0.00    +0.073 C 
BRANCH  20  21
ATOM     21  O5* UNL     1      18.404  -8.588 -13.636  0.00  0.00    -0.392 OA
ATOM     22  H   UNL     1      18.705  -8.246 -12.780  0.00  0.00    +0.000 HD
ENDBRANCH  20  21
ENDBRANCH  11  20
ENDBRANCH   1  13
BRANCH   5  23
ATOM     23  N   UNL     1      11.432  -6.570 -19.779  0.00  0.00    -0.343 N 
ATOM     24  H   UNL     1      10.943  -7.254 -20.292  0.00  0.00    +0.000 HD
ATOM     25  H   UNL     1      11.793  -5.776 -20.236  0.00  0.00    +0.000 HD
ENDBRANCH   5  23
TORSDOF 6
ENDMDL
