REMARK  Name = 4a.pdb
REMARK  4 active torsions:
REMARK  status: ('A' for Active; 'I' for Inactive)
REMARK    1  A    between atoms: N_7  and  C_11
REMARK    2  A    between atoms: C_9  and  C_10
REMARK    3  A    between atoms: C_10  and  O_18
REMARK    4  A    between atoms: C_11  and  C_12
REMARK                            x       y       z     vdW  Elec       q    Type
REMARK                         _______ _______ _______ _____ _____    ______ ____
ROOT
ATOM      1  C   UNL     1      -2.180  -0.696   0.018  0.00  0.00    -0.061 A 
ATOM      2  C   UNL     1      -2.176   0.693  -0.013  0.00  0.00    -0.060 A 
ATOM      3  C   UNL     1      -0.976   1.406  -0.034  0.00  0.00    -0.038 A 
ATOM      4  C   UNL     1       0.231   0.686  -0.012  0.00  0.00    +0.050 A 
ATOM      5  C   UNL     1       0.253  -0.712   0.013  0.00  0.00    +0.005 A 
ATOM      6  C   UNL     1      -0.976  -1.408   0.027  0.00  0.00    -0.052 A 
ATOM      7  N   UNL     1       1.546   1.111  -0.001  0.00  0.00    -0.342 N 
ATOM      8  C   UNL     1       2.386   0.025   0.003  0.00  0.00    +0.011 A 
ATOM      9  C   UNL     1       1.623  -1.128   0.015  0.00  0.00    +0.003 A 
ENDROOT
BRANCH   9  10
ATOM     10  C   UNL     1       2.139  -2.526   0.021  0.00  0.00    +0.071 C 
BRANCH  10  11
ATOM     11  O   UNL     1       2.929  -2.793  -1.134  0.00  0.00    -0.390 OA
ATOM     12  H   UNL     1       2.386  -2.682  -1.930  0.00  0.00    +0.000 HD
ENDBRANCH  10  11
ENDBRANCH   9  10
BRANCH   7  13
ATOM     13  C   UNL     1       2.002   2.498  -0.021  0.00  0.00    +0.048 C 
BRANCH  13  14
ATOM     14  C   UNL     1       2.158   3.040   1.380  0.00  0.00    -0.028 A 
ATOM     15  C   UNL     1       1.185   4.044   3.372  0.00  0.00    -0.047 A 
ATOM     16  C   UNL     1       2.389   3.863   4.049  0.00  0.00    +0.018 A 
ATOM     17  C   UNL     1       3.487   3.303   3.398  0.00  0.00    -0.047 A 
ATOM     18  C   UNL     1       3.372   2.893   2.068  0.00  0.00    -0.056 A 
ATOM     19 BR   UNL     1       2.523   4.351   5.869  0.00  0.00    -0.050 Br
ATOM     20  C   UNL     1       1.075   3.641   2.040  0.00  0.00    -0.056 A 
ENDBRANCH  13  14
ENDBRANCH   7  13
TORSDOF 4
