MODEL 1
REMARK VINA RESULT:    -7.782      0.000      0.000
REMARK INTER + INTRA:          -9.087
REMARK INTER:                  -8.692
REMARK INTRA:                  -0.395
REMARK UNBOUND:                -0.395
REMARK  Name = 0b.sdf
REMARK  2 active torsions:
REMARK  status: ('A' for Active; 'I' for Inactive)
REMARK    1  A    between atoms: N_7  and  C_10
REMARK    2  A    between atoms: C_10  and  C_11
REMARK                            x       y       z     vdW  Elec       q    Type
REMARK                         _______ _______ _______ _____ _____    ______ ____
ROOT
ATOM      1  C   UNL     1      73.076  -7.231  29.930  0.00  0.00    -0.061 A 
ATOM      2  C   UNL     1      73.076  -7.023  28.555  0.00  0.00    -0.060 A 
ATOM      3  C   UNL     1      74.249  -7.161  27.804  0.00  0.00    -0.038 A 
ATOM      4  C   UNL     1      75.429  -7.524  28.476  0.00  0.00    +0.049 A 
ATOM      5  C   UNL     1      75.441  -7.764  29.855  0.00  0.00    -0.000 A 
ATOM      6  C   UNL     1      74.249  -7.605  30.591  0.00  0.00    -0.053 A 
ATOM      7  N   UNL     1      76.726  -7.702  28.028  0.00  0.00    -0.342 N 
ATOM      8  C   UNL     1      77.532  -8.093  29.071  0.00  0.00    +0.006 A 
ATOM      9  C   UNL     1      76.764  -8.136  30.210  0.00  0.00    -0.036 A 
ENDROOT
BRANCH   7  10
ATOM     10  C   UNL     1      77.223  -7.388  26.693  0.00  0.00    +0.048 C 
BRANCH  10  11
ATOM     11  C   UNL     1      77.523  -8.623  25.885  0.00  0.00    -0.025 A 
ATOM     12  C   UNL     1      78.545  -8.627  24.931  0.00  0.00    -0.039 A 
ATOM     13  C   UNL     1      78.780  -9.785  24.209  0.00  0.00    +0.028 A 
ATOM     14  N   UNL     1      78.082 -10.927  24.375  0.00  0.00    -0.263 NA
ATOM     15  C   UNL     1      77.098 -10.907  25.297  0.00  0.00    +0.028 A 
ATOM     16  C   UNL     1      76.785  -9.798  26.067  0.00  0.00    -0.039 A 
ENDBRANCH  10  11
ENDBRANCH   7  10
TORSDOF 2
ENDMDL
MODEL 2
REMARK VINA RESULT:    -7.295      1.950      2.792
REMARK INTER + INTRA:          -8.543
REMARK INTER:                  -8.069
REMARK INTRA:                  -0.474
REMARK UNBOUND:                -0.395
REMARK  Name = 0b.sdf
REMARK  2 active torsions:
REMARK  status: ('A' for Active; 'I' for Inactive)
REMARK    1  A    between atoms: N_7  and  C_10
REMARK    2  A    between atoms: C_10  and  C_11
REMARK                            x       y       z     vdW  Elec       q    Type
REMARK                         _______ _______ _______ _____ _____    ______ ____
ROOT
ATOM      1  C   UNL     1      74.592  -3.654  30.317  0.00  0.00    -0.061 A 
ATOM      2  C   UNL     1      75.876  -4.168  30.460  0.00  0.00    -0.060 A 
ATOM      3  C   UNL     1      76.225  -5.404  29.905  0.00  0.00    -0.038 A 
ATOM      4  C   UNL     1      75.244  -6.112  29.191  0.00  0.00    +0.049 A 
ATOM      5  C   UNL     1      73.954  -5.597  29.013  0.00  0.00    -0.000 A 
ATOM      6  C   UNL     1      73.624  -4.356  29.593  0.00  0.00    -0.053 A 
ATOM      7  N   UNL     1      75.270  -7.347  28.568  0.00  0.00    -0.342 N 
ATOM      8  C   UNL     1      74.059  -7.594  27.966  0.00  0.00    +0.006 A 
ATOM      9  C   UNL     1      73.228  -6.531  28.229  0.00  0.00    -0.036 A 
ENDROOT
BRANCH   7  10
ATOM     10  C   UNL     1      76.352  -8.324  28.643  0.00  0.00    +0.048 C 
BRANCH  10  11
ATOM     11  C   UNL     1      76.941  -8.636  27.294  0.00  0.00    -0.025 A 
ATOM     12  C   UNL     1      77.643  -7.665  26.574  0.00  0.00    -0.039 A 
ATOM     13  C   UNL     1      78.162  -7.998  25.334  0.00  0.00    +0.028 A 
ATOM     14  N   UNL     1      78.040  -9.218  24.772  0.00  0.00    -0.263 NA
ATOM     15  C   UNL     1      77.358 -10.144  25.478  0.00  0.00    +0.028 A 
ATOM     16  C   UNL     1      76.800  -9.907  26.724  0.00  0.00    -0.039 A 
ENDBRANCH  10  11
ENDBRANCH   7  10
TORSDOF 2
ENDMDL
MODEL 3
REMARK VINA RESULT:    -4.840      3.227      5.411
REMARK INTER + INTRA:          -5.800
REMARK INTER:                  -5.307
REMARK INTRA:                  -0.493
REMARK UNBOUND:                -0.395
REMARK  Name = 0b.sdf
REMARK  2 active torsions:
REMARK  status: ('A' for Active; 'I' for Inactive)
REMARK    1  A    between atoms: N_7  and  C_10
REMARK    2  A    between atoms: C_10  and  C_11
REMARK                            x       y       z     vdW  Elec       q    Type
REMARK                         _______ _______ _______ _____ _____    ______ ____
ROOT
ATOM      1  C   UNL     1      79.333  -2.964  29.237  0.00  0.00    -0.061 A 
ATOM      2  C   UNL     1      78.514  -3.559  28.283  0.00  0.00    -0.060 A 
ATOM      3  C   UNL     1      78.008  -4.850  28.470  0.00  0.00    -0.038 A 
ATOM      4  C   UNL     1      78.342  -5.530  29.654  0.00  0.00    +0.049 A 
ATOM      5  C   UNL     1      79.143  -4.936  30.637  0.00  0.00    -0.000 A 
ATOM      6  C   UNL     1      79.651  -3.640  30.418  0.00  0.00    -0.053 A 
ATOM      7  N   UNL     1      78.033  -6.801  30.104  0.00  0.00    -0.342 N 
ATOM      8  C   UNL     1      78.571  -6.998  31.354  0.00  0.00    +0.006 A 
ATOM      9  C   UNL     1      79.263  -5.863  31.705  0.00  0.00    -0.036 A 
ENDROOT
BRANCH   7  10
ATOM     10  C   UNL     1      77.367  -7.846  29.334  0.00  0.00    +0.048 C 
BRANCH  10  11
ATOM     11  C   UNL     1      75.870  -7.683  29.317  0.00  0.00    -0.025 A 
ATOM     12  C   UNL     1      75.139  -7.628  30.507  0.00  0.00    -0.039 A 
ATOM     13  C   UNL     1      73.764  -7.483  30.441  0.00  0.00    +0.028 A 
ATOM     14  N   UNL     1      73.075  -7.381  29.286  0.00  0.00    -0.263 NA
ATOM     15  C   UNL     1      73.794  -7.438  28.145  0.00  0.00    +0.028 A 
ATOM     16  C   UNL     1      75.171  -7.584  28.108  0.00  0.00    -0.039 A 
ENDBRANCH  10  11
ENDBRANCH   7  10
TORSDOF 2
ENDMDL
