MODEL 1
REMARK VINA RESULT:    -9.103      0.000      0.000
REMARK INTER + INTRA:         -10.577
REMARK INTER:                 -10.168
REMARK INTRA:                  -0.410
REMARK UNBOUND:                -0.410
REMARK  Name = 0c.sdf
REMARK  2 active torsions:
REMARK  status: ('A' for Active; 'I' for Inactive)
REMARK    1  A    between atoms: N_7  and  C_10
REMARK    2  A    between atoms: C_10  and  C_11
REMARK                            x       y       z     vdW  Elec       q    Type
REMARK                         _______ _______ _______ _____ _____    ______ ____
ROOT
ATOM      1  C   UNL     1      73.111  -7.268  29.968  0.00  0.00    -0.061 A 
ATOM      2  C   UNL     1      73.076  -7.040  28.598  0.00  0.00    -0.060 A 
ATOM      3  C   UNL     1      74.244  -7.079  27.829  0.00  0.00    -0.038 A 
ATOM      4  C   UNL     1      75.458  -7.364  28.477  0.00  0.00    +0.049 A 
ATOM      5  C   UNL     1      75.508  -7.623  29.850  0.00  0.00    -0.000 A 
ATOM      6  C   UNL     1      74.321  -7.570  30.605  0.00  0.00    -0.053 A 
ATOM      7  N   UNL     1      76.757  -7.447  28.007  0.00  0.00    -0.342 N 
ATOM      8  C   UNL     1      77.606  -7.796  29.030  0.00  0.00    +0.006 A 
ATOM      9  C   UNL     1      76.860  -7.908  30.180  0.00  0.00    -0.036 A 
ENDROOT
BRANCH   7  10
ATOM     10  C   UNL     1      77.205  -7.136  26.652  0.00  0.00    +0.048 C 
BRANCH  10  11
ATOM     11  C   UNL     1      77.587  -8.384  25.895  0.00  0.00    -0.028 A 
ATOM     12  C   UNL     1      78.614  -8.353  24.940  0.00  0.00    -0.055 A 
ATOM     13  C   UNL     1      78.887  -9.473  24.155  0.00  0.00    -0.043 A 
ATOM     14  C   UNL     1      78.145 -10.639  24.330  0.00  0.00    +0.041 A 
ATOM     15  C   UNL     1      77.156 -10.704  25.308  0.00  0.00    -0.043 A 
ATOM     16  C   UNL     1      76.880  -9.582  26.091  0.00  0.00    -0.055 A 
ATOM     17 CL   UNL     1      78.436 -11.997  23.314  0.00  0.00    -0.084 Cl
ENDBRANCH  10  11
ENDBRANCH   7  10
TORSDOF 2
ENDMDL
MODEL 2
REMARK VINA RESULT:    -8.510      1.895      2.884
REMARK INTER + INTRA:          -9.914
REMARK INTER:                  -9.449
REMARK INTRA:                  -0.465
REMARK UNBOUND:                -0.410
REMARK  Name = 0c.sdf
REMARK  2 active torsions:
REMARK  status: ('A' for Active; 'I' for Inactive)
REMARK    1  A    between atoms: N_7  and  C_10
REMARK    2  A    between atoms: C_10  and  C_11
REMARK                            x       y       z     vdW  Elec       q    Type
REMARK                         _______ _______ _______ _____ _____    ______ ____
ROOT
ATOM      1  C   UNL     1      74.758  -3.688  30.372  0.00  0.00    -0.061 A 
ATOM      2  C   UNL     1      76.013  -4.249  30.576  0.00  0.00    -0.060 A 
ATOM      3  C   UNL     1      76.352  -5.484  30.014  0.00  0.00    -0.038 A 
ATOM      4  C   UNL     1      75.394  -6.143  29.227  0.00  0.00    +0.049 A 
ATOM      5  C   UNL     1      74.136  -5.580  28.988  0.00  0.00    -0.000 A 
ATOM      6  C   UNL     1      73.813  -4.341  29.571  0.00  0.00    -0.053 A 
ATOM      7  N   UNL     1      75.418  -7.362  28.570  0.00  0.00    -0.342 N 
ATOM      8  C   UNL     1      74.239  -7.553  27.892  0.00  0.00    +0.006 A 
ATOM      9  C   UNL     1      73.428  -6.469  28.136  0.00  0.00    -0.036 A 
ENDROOT
BRANCH   7  10
ATOM     10  C   UNL     1      76.488  -8.354  28.634  0.00  0.00    +0.048 C 
BRANCH  10  11
ATOM     11  C   UNL     1      76.979  -8.728  27.258  0.00  0.00    -0.028 A 
ATOM     12  C   UNL     1      76.829 -10.039  26.780  0.00  0.00    -0.055 A 
ATOM     13  C   UNL     1      77.389 -10.417  25.559  0.00  0.00    -0.043 A 
ATOM     14  C   UNL     1      78.089  -9.482  24.800  0.00  0.00    +0.041 A 
ATOM     15  C   UNL     1      78.204  -8.165  25.235  0.00  0.00    -0.043 A 
ATOM     16  C   UNL     1      77.647  -7.787  26.459  0.00  0.00    -0.055 A 
ATOM     17 CL   UNL     1      78.838  -9.966  23.328  0.00  0.00    -0.084 Cl
ENDBRANCH  10  11
ENDBRANCH   7  10
TORSDOF 2
ENDMDL
MODEL 3
REMARK VINA RESULT:    -8.020      1.818      2.614
REMARK INTER + INTRA:          -9.367
REMARK INTER:                  -9.106
REMARK INTRA:                  -0.261
REMARK UNBOUND:                -0.410
REMARK  Name = 0c.sdf
REMARK  2 active torsions:
REMARK  status: ('A' for Active; 'I' for Inactive)
REMARK    1  A    between atoms: N_7  and  C_10
REMARK    2  A    between atoms: C_10  and  C_11
REMARK                            x       y       z     vdW  Elec       q    Type
REMARK                         _______ _______ _______ _____ _____    ______ ____
ROOT
ATOM      1  C   UNL     1      73.076  -5.516  30.047  0.00  0.00    -0.061 A 
ATOM      2  C   UNL     1      73.123  -6.892  30.241  0.00  0.00    -0.060 A 
ATOM      3  C   UNL     1      74.345  -7.571  30.293  0.00  0.00    -0.038 A 
ATOM      4  C   UNL     1      75.528  -6.826  30.155  0.00  0.00    +0.049 A 
ATOM      5  C   UNL     1      75.499  -5.437  29.988  0.00  0.00    -0.000 A 
ATOM      6  C   UNL     1      74.258  -4.777  29.929  0.00  0.00    -0.053 A 
ATOM      7  N   UNL     1      76.860  -7.203  30.139  0.00  0.00    -0.342 N 
ATOM      8  C   UNL     1      77.661  -6.094  30.017  0.00  0.00    +0.006 A 
ATOM      9  C   UNL     1      76.846  -4.990  29.918  0.00  0.00    -0.036 A 
ENDROOT
BRANCH   7  10
ATOM     10  C   UNL     1      77.368  -8.572  30.164  0.00  0.00    +0.048 C 
BRANCH  10  11
ATOM     11  C   UNL     1      77.323  -9.204  28.795  0.00  0.00    -0.028 A 
ATOM     12  C   UNL     1      77.853 -10.486  28.584  0.00  0.00    -0.055 A 
ATOM     13  C   UNL     1      77.922 -11.022  27.298  0.00  0.00    -0.043 A 
ATOM     14  C   UNL     1      77.445 -10.287  26.215  0.00  0.00    +0.041 A 
ATOM     15  C   UNL     1      76.870  -9.035  26.412  0.00  0.00    -0.043 A 
ATOM     16  C   UNL     1      76.805  -8.496  27.699  0.00  0.00    -0.055 A 
ATOM     17 CL   UNL     1      77.593 -10.920  24.622  0.00  0.00    -0.084 Cl
ENDBRANCH  10  11
ENDBRANCH   7  10
TORSDOF 2
ENDMDL
