MODEL 1
REMARK VINA RESULT:    -7.225      0.000      0.000
REMARK INTER + INTRA:         -10.955
REMARK INTER:                  -9.337
REMARK INTRA:                  -1.618
REMARK UNBOUND:                -1.618
REMARK  Name = 15.sdf
REMARK  6 active torsions:
REMARK  status: ('A' for Active; 'I' for Inactive)
REMARK    1  A    between atoms: C_9  and  C_10
REMARK    2  A    between atoms: C_10  and  O_11
REMARK    3  A    between atoms: O_11  and  C_12
REMARK    4  A    between atoms: C_12  and  C_13
REMARK    5  A    between atoms: C_13  and  C_15
REMARK    6  A    between atoms: C_16  and  C_17
REMARK                            x       y       z     vdW  Elec       q    Type
REMARK                         _______ _______ _______ _____ _____    ______ ____
ROOT
ATOM      1  C   UNL     1      73.589  -7.308  30.403  0.00  0.00    -0.061 A 
ATOM      2  C   UNL     1      73.075  -7.055  29.133  0.00  0.00    -0.060 A 
ATOM      3  C   UNL     1      73.864  -7.222  27.991  0.00  0.00    -0.038 A 
ATOM      4  C   UNL     1      75.184  -7.651  28.171  0.00  0.00    +0.047 A 
ATOM      5  C   UNL     1      75.729  -7.911  29.429  0.00  0.00    +0.006 A 
ATOM      6  C   UNL     1      74.911  -7.737  30.565  0.00  0.00    -0.052 A 
ATOM      7  N   UNL     1      76.171  -7.894  27.246  0.00  0.00    -0.360 N 
ATOM      8  C   UNL     1      77.317  -8.299  27.872  0.00  0.00    +0.009 A 
ATOM      9  C   UNL     1      77.090  -8.315  29.236  0.00  0.00    +0.015 A 
ATOM     10  H   UNL     1      76.068  -7.791  26.272  0.00  0.00    +0.000 HD
ENDROOT
BRANCH   9  11
ATOM     11  C   UNL     1      78.074  -8.687  30.296  0.00  0.00    +0.120 C 
BRANCH  11  12
ATOM     12  O   UNL     1      78.862  -7.567  30.732  0.00  0.00    -0.456 OA
BRANCH  12  13
ATOM     13  C   UNL     1      78.353  -6.875  31.782  0.00  0.00    +0.339 C 
ATOM     14  O   UNL     1      77.861  -7.371  32.788  0.00  0.00    -0.245 OA
BRANCH  13  15
ATOM     15  C   UNL     1      78.428  -5.385  31.559  0.00  0.00    +0.052 C 
ATOM     16  C   UNL     1      79.610  -4.749  31.490  0.00  0.00    -0.085 C 
BRANCH  15  17
ATOM     17  C   UNL     1      77.181  -4.691  31.267  0.00  0.00    -0.053 C 
ATOM     18  C   UNL     1      76.650  -4.350  30.082  0.00  0.00    -0.086 C 
ATOM     19  C   UNL     1      77.198  -4.556  28.707  0.00  0.00    -0.047 C 
ENDBRANCH  15  17
ENDBRANCH  13  15
ENDBRANCH  12  13
ENDBRANCH  11  12
ENDBRANCH   9  11
TORSDOF 5
ENDMDL
MODEL 2
REMARK VINA RESULT:    -6.745      2.364      4.500
REMARK INTER + INTRA:         -10.334
REMARK INTER:                  -9.485
REMARK INTRA:                  -0.849
REMARK UNBOUND:                -1.618
REMARK  Name = 15.sdf
REMARK  6 active torsions:
REMARK  status: ('A' for Active; 'I' for Inactive)
REMARK    1  A    between atoms: C_9  and  C_10
REMARK    2  A    between atoms: C_10  and  O_11
REMARK    3  A    between atoms: O_11  and  C_12
REMARK    4  A    between atoms: C_12  and  C_13
REMARK    5  A    between atoms: C_13  and  C_15
REMARK    6  A    between atoms: C_16  and  C_17
REMARK                            x       y       z     vdW  Elec       q    Type
REMARK                         _______ _______ _______ _____ _____    ______ ____
ROOT
ATOM      1  C   UNL     1      73.336  -7.125  30.193  0.00  0.00    -0.061 A 
ATOM      2  C   UNL     1      73.075  -5.757  30.232  0.00  0.00    -0.060 A 
ATOM      3  C   UNL     1      74.118  -4.826  30.256  0.00  0.00    -0.038 A 
ATOM      4  C   UNL     1      75.428  -5.319  30.241  0.00  0.00    +0.047 A 
ATOM      5  C   UNL     1      75.722  -6.682  30.204  0.00  0.00    +0.006 A 
ATOM      6  C   UNL     1      74.652  -7.600  30.178  0.00  0.00    -0.052 A 
ATOM      7  N   UNL     1      76.627  -4.647  30.260  0.00  0.00    -0.360 N 
ATOM      8  C   UNL     1      77.666  -5.535  30.235  0.00  0.00    +0.009 A 
ATOM      9  C   UNL     1      77.148  -6.817  30.209  0.00  0.00    +0.015 A 
ATOM     10  H   UNL     1      76.724  -3.668  30.287  0.00  0.00    +0.000 HD
ENDROOT
BRANCH   9  11
ATOM     11  C   UNL     1      77.929  -8.090  30.186  0.00  0.00    +0.120 C 
BRANCH  11  12
ATOM     12  O   UNL     1      78.310  -8.478  28.855  0.00  0.00    -0.456 OA
BRANCH  12  13
ATOM     13  C   UNL     1      77.703  -9.595  28.382  0.00  0.00    +0.339 C 
ATOM     14  O   UNL     1      77.785 -10.712  28.878  0.00  0.00    -0.245 OA
BRANCH  13  15
ATOM     15  C   UNL     1      76.920  -9.315  27.123  0.00  0.00    +0.052 C 
ATOM     16  C   UNL     1      76.435  -8.090  26.863  0.00  0.00    -0.085 C 
BRANCH  15  17
ATOM     17  C   UNL     1      76.846 -10.382  26.133  0.00  0.00    -0.053 C 
ATOM     18  C   UNL     1      77.590 -10.578  25.033  0.00  0.00    -0.086 C 
ATOM     19  C   UNL     1      78.697  -9.743  24.479  0.00  0.00    -0.047 C 
ENDBRANCH  15  17
ENDBRANCH  13  15
ENDBRANCH  12  13
ENDBRANCH  11  12
ENDBRANCH   9  11
TORSDOF 5
ENDMDL
MODEL 3
REMARK VINA RESULT:    -6.698      5.850      8.455
REMARK INTER + INTRA:         -10.274
REMARK INTER:                  -9.119
REMARK INTRA:                  -1.155
REMARK UNBOUND:                -1.618
REMARK  Name = 15.sdf
REMARK  6 active torsions:
REMARK  status: ('A' for Active; 'I' for Inactive)
REMARK    1  A    between atoms: C_9  and  C_10
REMARK    2  A    between atoms: C_10  and  O_11
REMARK    3  A    between atoms: O_11  and  C_12
REMARK    4  A    between atoms: C_12  and  C_13
REMARK    5  A    between atoms: C_13  and  C_15
REMARK    6  A    between atoms: C_16  and  C_17
REMARK                            x       y       z     vdW  Elec       q    Type
REMARK                         _______ _______ _______ _____ _____    ______ ____
ROOT
ATOM      1  C   UNL     1      81.661 -13.856  24.215  0.00  0.00    -0.061 A 
ATOM      2  C   UNL     1      82.828 -14.386  24.760  0.00  0.00    -0.060 A 
ATOM      3  C   UNL     1      83.194 -14.111  26.081  0.00  0.00    -0.038 A 
ATOM      4  C   UNL     1      82.347 -13.287  26.831  0.00  0.00    +0.047 A 
ATOM      5  C   UNL     1      81.173 -12.739  26.314  0.00  0.00    +0.006 A 
ATOM      6  C   UNL     1      80.825 -13.034  24.979  0.00  0.00    -0.052 A 
ATOM      7  N   UNL     1      82.456 -12.854  28.132  0.00  0.00    -0.360 N 
ATOM      8  C   UNL     1      81.393 -12.056  28.454  0.00  0.00    +0.009 A 
ATOM      9  C   UNL     1      80.572 -11.949  27.347  0.00  0.00    +0.015 A 
ATOM     10  H   UNL     1      83.192 -13.085  28.743  0.00  0.00    +0.000 HD
ENDROOT
BRANCH   9  11
ATOM     11  C   UNL     1      79.304 -11.165  27.254  0.00  0.00    +0.120 C 
BRANCH  11  12
ATOM     12  O   UNL     1      79.513  -9.756  27.449  0.00  0.00    -0.456 OA
BRANCH  12  13
ATOM     13  C   UNL     1      80.053  -9.100  26.390  0.00  0.00    +0.339 C 
ATOM     14  O   UNL     1      81.207  -8.697  26.318  0.00  0.00    -0.245 OA
BRANCH  13  15
ATOM     15  C   UNL     1      79.041  -8.881  25.293  0.00  0.00    +0.052 C 
ATOM     16  C   UNL     1      77.919  -8.175  25.511  0.00  0.00    -0.085 C 
BRANCH  15  17
ATOM     17  C   UNL     1      79.401  -9.330  23.955  0.00  0.00    -0.053 C 
ATOM     18  C   UNL     1      78.924 -10.365  23.245  0.00  0.00    -0.086 C 
ATOM     19  C   UNL     1      77.901 -11.384  23.628  0.00  0.00    -0.047 C 
ENDBRANCH  15  17
ENDBRANCH  13  15
ENDBRANCH  12  13
ENDBRANCH  11  12
ENDBRANCH   9  11
TORSDOF 5
ENDMDL
