MODEL 1
REMARK VINA RESULT:    -8.448      0.000      0.000
REMARK INTER + INTRA:         -10.808
REMARK INTER:                 -10.424
REMARK INTRA:                  -0.385
REMARK UNBOUND:                -0.385
REMARK  Name = 16.sdf
REMARK  4 active torsions:
REMARK  status: ('A' for Active; 'I' for Inactive)
REMARK    1  A    between atoms: C_9  and  C_10
REMARK    2  A    between atoms: C_10  and  O_11
REMARK    3  A    between atoms: O_11  and  C_12
REMARK    4  A    between atoms: C_12  and  C_13
REMARK                            x       y       z     vdW  Elec       q    Type
REMARK                         _______ _______ _______ _____ _____    ______ ____
ROOT
ATOM      1  C   UNL     1      73.833  -7.597  30.229  0.00  0.00    -0.061 A 
ATOM      2  C   UNL     1      73.075  -6.455  30.477  0.00  0.00    -0.060 A 
ATOM      3  C   UNL     1      73.627  -5.181  30.326  0.00  0.00    -0.038 A 
ATOM      4  C   UNL     1      74.963  -5.096  29.917  0.00  0.00    +0.047 A 
ATOM      5  C   UNL     1      75.751  -6.219  29.654  0.00  0.00    +0.005 A 
ATOM      6  C   UNL     1      75.167  -7.494  29.818  0.00  0.00    -0.052 A 
ATOM      7  N   UNL     1      75.748  -3.990  29.694  0.00  0.00    -0.360 N 
ATOM      8  C   UNL     1      77.001  -4.372  29.306  0.00  0.00    +0.008 A 
ATOM      9  C   UNL     1      77.047  -5.753  29.254  0.00  0.00    +0.003 A 
ATOM     10  H   UNL     1      75.451  -3.057  29.798  0.00  0.00    +0.000 HD
ENDROOT
BRANCH   9  11
ATOM     11  C   UNL     1      78.227  -6.589  28.869  0.00  0.00    +0.075 C 
BRANCH  11  12
ATOM     12  O   UNL     1      78.412  -6.598  27.451  0.00  0.00    -0.371 OA
BRANCH  12  13
ATOM     13  C   UNL     1      77.253  -7.054  26.760  0.00  0.00    +0.073 C 
BRANCH  13  14
ATOM     14  C   UNL     1      77.582  -8.286  25.948  0.00  0.00    -0.022 A 
ATOM     15  C   UNL     1      76.842  -9.464  26.126  0.00  0.00    -0.055 A 
ATOM     16  C   UNL     1      77.121 -10.603  25.365  0.00  0.00    -0.043 A 
ATOM     17  C   UNL     1      78.136 -10.568  24.411  0.00  0.00    +0.041 A 
ATOM     18  C   UNL     1      78.868  -9.402  24.206  0.00  0.00    -0.043 A 
ATOM     19  C   UNL     1      78.587  -8.265  24.968  0.00  0.00    -0.055 A 
ATOM     20 CL   UNL     1      78.482 -11.971  23.478  0.00  0.00    -0.084 Cl
ENDBRANCH  13  14
ENDBRANCH  12  13
ENDBRANCH  11  12
ENDBRANCH   9  11
TORSDOF 4
ENDMDL
MODEL 2
REMARK VINA RESULT:    -8.315      4.743      7.041
REMARK INTER + INTRA:         -10.644
REMARK INTER:                  -9.684
REMARK INTRA:                  -0.960
REMARK UNBOUND:                -0.385
REMARK  Name = 16.sdf
REMARK  4 active torsions:
REMARK  status: ('A' for Active; 'I' for Inactive)
REMARK    1  A    between atoms: C_9  and  C_10
REMARK    2  A    between atoms: C_10  and  O_11
REMARK    3  A    between atoms: O_11  and  C_12
REMARK    4  A    between atoms: C_12  and  C_13
REMARK                            x       y       z     vdW  Elec       q    Type
REMARK                         _______ _______ _______ _____ _____    ______ ____
ROOT
ATOM      1  C   UNL     1      79.412 -11.002  29.369  0.00  0.00    -0.061 A 
ATOM      2  C   UNL     1      80.266 -11.564  30.315  0.00  0.00    -0.060 A 
ATOM      3  C   UNL     1      81.278 -12.448  29.933  0.00  0.00    -0.038 A 
ATOM      4  C   UNL     1      81.401 -12.744  28.571  0.00  0.00    +0.047 A 
ATOM      5  C   UNL     1      80.567 -12.197  27.594  0.00  0.00    +0.005 A 
ATOM      6  C   UNL     1      79.551 -11.309  28.010  0.00  0.00    -0.052 A 
ATOM      7  N   UNL     1      82.292 -13.569  27.925  0.00  0.00    -0.360 N 
ATOM      8  C   UNL     1      82.048 -13.566  26.581  0.00  0.00    +0.008 A 
ATOM      9  C   UNL     1      80.990 -12.714  26.325  0.00  0.00    +0.003 A 
ATOM     10  H   UNL     1      83.003 -14.087  28.367  0.00  0.00    +0.000 HD
ENDROOT
BRANCH   9  11
ATOM     11  C   UNL     1      80.398 -12.410  24.984  0.00  0.00    +0.075 C 
BRANCH  11  12
ATOM     12  O   UNL     1      80.635 -11.050  24.613  0.00  0.00    -0.371 OA
BRANCH  12  13
ATOM     13  C   UNL     1      79.557 -10.502  23.860  0.00  0.00    +0.073 C 
BRANCH  13  14
ATOM     14  C   UNL     1      78.556  -9.848  24.785  0.00  0.00    -0.022 A 
ATOM     15  C   UNL     1      77.463 -10.581  25.271  0.00  0.00    -0.055 A 
ATOM     16  C   UNL     1      76.544  -9.995  26.146  0.00  0.00    -0.043 A 
ATOM     17  C   UNL     1      76.719  -8.673  26.551  0.00  0.00    +0.041 A 
ATOM     18  C   UNL     1      77.808  -7.936  26.096  0.00  0.00    -0.043 A 
ATOM     19  C   UNL     1      78.725  -8.523  25.221  0.00  0.00    -0.055 A 
ATOM     20 CL   UNL     1      75.584  -7.951  27.625  0.00  0.00    -0.084 Cl
ENDBRANCH  13  14
ENDBRANCH  12  13
ENDBRANCH  11  12
ENDBRANCH   9  11
TORSDOF 4
ENDMDL
MODEL 3
REMARK VINA RESULT:    -8.139      1.386      2.384
REMARK INTER + INTRA:         -10.427
REMARK INTER:                 -10.196
REMARK INTRA:                  -0.231
REMARK UNBOUND:                -0.385
REMARK  Name = 16.sdf
REMARK  4 active torsions:
REMARK  status: ('A' for Active; 'I' for Inactive)
REMARK    1  A    between atoms: C_9  and  C_10
REMARK    2  A    between atoms: C_10  and  O_11
REMARK    3  A    between atoms: O_11  and  C_12
REMARK    4  A    between atoms: C_12  and  C_13
REMARK                            x       y       z     vdW  Elec       q    Type
REMARK                         _______ _______ _______ _____ _____    ______ ____
ROOT
ATOM      1  C   UNL     1      75.850  -3.935  30.622  0.00  0.00    -0.061 A 
ATOM      2  C   UNL     1      74.553  -3.491  30.375  0.00  0.00    -0.060 A 
ATOM      3  C   UNL     1      73.638  -4.295  29.690  0.00  0.00    -0.038 A 
ATOM      4  C   UNL     1      74.073  -5.556  29.265  0.00  0.00    +0.047 A 
ATOM      5  C   UNL     1      75.363  -6.035  29.499  0.00  0.00    +0.005 A 
ATOM      6  C   UNL     1      76.266  -5.200  30.192  0.00  0.00    -0.052 A 
ATOM      7  N   UNL     1      73.396  -6.536  28.579  0.00  0.00    -0.360 N 
ATOM      8  C   UNL     1      74.211  -7.613  28.368  0.00  0.00    +0.008 A 
ATOM      9  C   UNL     1      75.444  -7.352  28.935  0.00  0.00    +0.003 A 
ATOM     10  H   UNL     1      72.459  -6.473  28.282  0.00  0.00    +0.000 HD
ENDROOT
BRANCH   9  11
ATOM     11  C   UNL     1      76.630  -8.265  28.942  0.00  0.00    +0.075 C 
BRANCH  11  12
ATOM     12  O   UNL     1      77.659  -7.779  28.077  0.00  0.00    -0.371 OA
BRANCH  12  13
ATOM     13  C   UNL     1      77.181  -7.530  26.758  0.00  0.00    +0.073 C 
BRANCH  13  14
ATOM     14  C   UNL     1      77.551  -8.677  25.845  0.00  0.00    -0.022 A 
ATOM     15  C   UNL     1      78.591  -8.528  24.915  0.00  0.00    -0.055 A 
ATOM     16  C   UNL     1      78.959  -9.588  24.082  0.00  0.00    -0.043 A 
ATOM     17  C   UNL     1      78.297 -10.810  24.182  0.00  0.00    +0.041 A 
ATOM     18  C   UNL     1      77.276 -10.983  25.112  0.00  0.00    -0.043 A 
ATOM     19  C   UNL     1      76.910  -9.922  25.944  0.00  0.00    -0.055 A 
ATOM     20 CL   UNL     1      78.747 -12.114  23.153  0.00  0.00    -0.084 Cl
ENDBRANCH  13  14
ENDBRANCH  12  13
ENDBRANCH  11  12
ENDBRANCH   9  11
TORSDOF 4
ENDMDL
