MODEL 1
REMARK VINA RESULT:   -10.168      0.000      0.000
REMARK INTER + INTRA:         -15.570
REMARK INTER:                 -13.735
REMARK INTRA:                  -1.834
REMARK UNBOUND:                -1.834
REMARK  Name = 16c.sdf
REMARK  6 active torsions:
REMARK  status: ('A' for Active; 'I' for Inactive)
REMARK    1  A    between atoms: N_7  and  C_11
REMARK    2  A    between atoms: C_9  and  C_10
REMARK    3  A    between atoms: C_10  and  O_19
REMARK    4  A    between atoms: C_11  and  C_12
REMARK    5  A    between atoms: O_19  and  C_20
REMARK    6  A    between atoms: C_20  and  C_21
REMARK                            x       y       z     vdW  Elec       q    Type
REMARK                         _______ _______ _______ _____ _____    ______ ____
ROOT
ATOM      1  C   UNL     1      74.179  -7.609  30.306  0.00  0.00    -0.061 A 
ATOM      2  C   UNL     1      73.864  -7.494  28.954  0.00  0.00    -0.060 A 
ATOM      3  C   UNL     1      74.868  -7.463  27.978  0.00  0.00    -0.038 A 
ATOM      4  C   UNL     1      76.206  -7.557  28.395  0.00  0.00    +0.050 A 
ATOM      5  C   UNL     1      76.541  -7.713  29.744  0.00  0.00    +0.005 A 
ATOM      6  C   UNL     1      75.512  -7.733  30.708  0.00  0.00    -0.052 A 
ATOM      7  N   UNL     1      77.395  -7.525  27.691  0.00  0.00    -0.342 N 
ATOM      8  C   UNL     1      78.451  -7.731  28.546  0.00  0.00    +0.011 A 
ATOM      9  C   UNL     1      77.957  -7.871  29.828  0.00  0.00    +0.003 A 
ENDROOT
BRANCH   9  10
ATOM     10  C   UNL     1      78.737  -8.189  31.062  0.00  0.00    +0.075 C 
BRANCH  10  11
ATOM     11  O   UNL     1      79.791  -9.130  30.827  0.00  0.00    -0.371 OA
BRANCH  11  12
ATOM     12  C   UNL     1      79.352 -10.480  30.928  0.00  0.00    +0.073 C 
BRANCH  12  13
ATOM     13  C   UNL     1      80.027 -11.281  29.845  0.00  0.00    -0.022 A 
ATOM     14  C   UNL     1      79.545 -11.240  28.529  0.00  0.00    -0.055 A 
ATOM     15  C   UNL     1      80.166 -11.985  27.526  0.00  0.00    -0.043 A 
ATOM     16  C   UNL     1      81.263 -12.784  27.838  0.00  0.00    +0.041 A 
ATOM     17  C   UNL     1      81.745 -12.843  29.147  0.00  0.00    -0.043 A 
ATOM     18  C   UNL     1      81.122 -12.101  30.147  0.00  0.00    -0.055 A 
ATOM     19 CL   UNL     1      82.030 -13.705  26.603  0.00  0.00    -0.084 Cl
ENDBRANCH  12  13
ENDBRANCH  11  12
ENDBRANCH  10  11
ENDBRANCH   9  10
BRANCH   7  20
ATOM     20  C   UNL     1      77.551  -7.236  26.266  0.00  0.00    +0.048 C 
BRANCH  20  21
ATOM     21  C   UNL     1      77.890  -8.477  25.477  0.00  0.00    -0.028 A 
ATOM     22  C   UNL     1      77.190  -9.673  25.699  0.00  0.00    -0.055 A 
ATOM     23  C   UNL     1      77.561 -10.847  25.040  0.00  0.00    -0.043 A 
ATOM     24  C   UNL     1      78.627 -10.830  24.144  0.00  0.00    +0.041 A 
ATOM     25  C   UNL     1      79.304  -9.643  23.877  0.00  0.00    -0.043 A 
ATOM     26  C   UNL     1      78.935  -8.469  24.539  0.00  0.00    -0.055 A 
ATOM     27 CL   UNL     1      79.122 -12.290  23.380  0.00  0.00    -0.084 Cl
ENDBRANCH  20  21
ENDBRANCH   7  20
TORSDOF 6
ENDMDL
MODEL 2
REMARK VINA RESULT:    -9.665      1.804      4.556
REMARK INTER + INTRA:         -14.890
REMARK INTER:                 -13.486
REMARK INTRA:                  -1.404
REMARK UNBOUND:                -1.834
REMARK  Name = 16c.sdf
REMARK  6 active torsions:
REMARK  status: ('A' for Active; 'I' for Inactive)
REMARK    1  A    between atoms: N_7  and  C_11
REMARK    2  A    between atoms: C_9  and  C_10
REMARK    3  A    between atoms: C_10  and  O_19
REMARK    4  A    between atoms: C_11  and  C_12
REMARK    5  A    between atoms: O_19  and  C_20
REMARK    6  A    between atoms: C_20  and  C_21
REMARK                            x       y       z     vdW  Elec       q    Type
REMARK                         _______ _______ _______ _____ _____    ______ ____
ROOT
ATOM      1  C   UNL     1      73.921  -7.588  28.997  0.00  0.00    -0.061 A 
ATOM      2  C   UNL     1      74.299  -7.690  30.334  0.00  0.00    -0.060 A 
ATOM      3  C   UNL     1      75.648  -7.781  30.699  0.00  0.00    -0.038 A 
ATOM      4  C   UNL     1      76.616  -7.761  29.681  0.00  0.00    +0.050 A 
ATOM      5  C   UNL     1      76.259  -7.619  28.337  0.00  0.00    +0.005 A 
ATOM      6  C   UNL     1      74.893  -7.538  27.995  0.00  0.00    -0.052 A 
ATOM      7  N   UNL     1      77.995  -7.863  29.719  0.00  0.00    -0.342 N 
ATOM      8  C   UNL     1      78.509  -7.713  28.453  0.00  0.00    +0.011 A 
ATOM      9  C   UNL     1      77.461  -7.541  27.571  0.00  0.00    +0.003 A 
ENDROOT
BRANCH   9  10
ATOM     10  C   UNL     1      77.556  -7.262  26.106  0.00  0.00    +0.075 C 
BRANCH  10  11
ATOM     11  O   UNL     1      78.256  -8.285  25.388  0.00  0.00    -0.371 OA
BRANCH  11  12
ATOM     12  C   UNL     1      77.564  -9.529  25.397  0.00  0.00    +0.073 C 
BRANCH  12  13
ATOM     13  C   UNL     1      78.557 -10.626  25.118  0.00  0.00    -0.022 A 
ATOM     14  C   UNL     1      78.632 -11.207  23.843  0.00  0.00    -0.055 A 
ATOM     15  C   UNL     1      79.548 -12.227  23.584  0.00  0.00    -0.043 A 
ATOM     16  C   UNL     1      80.384 -12.679  24.603  0.00  0.00    +0.041 A 
ATOM     17  C   UNL     1      80.312 -12.118  25.878  0.00  0.00    -0.043 A 
ATOM     18  C   UNL     1      79.394 -11.102  26.136  0.00  0.00    -0.055 A 
ATOM     19 CL   UNL     1      81.514 -13.938  24.285  0.00  0.00    -0.084 Cl
ENDBRANCH  12  13
ENDBRANCH  11  12
ENDBRANCH  10  11
ENDBRANCH   9  10
BRANCH   7  20
ATOM     20  C   UNL     1      78.809  -8.166  30.894  0.00  0.00    +0.048 C 
BRANCH  20  21
ATOM     21  C   UNL     1      79.717  -9.348  30.656  0.00  0.00    -0.028 A 
ATOM     22  C   UNL     1      79.178 -10.604  30.338  0.00  0.00    -0.055 A 
ATOM     23  C   UNL     1      80.006 -11.721  30.209  0.00  0.00    -0.043 A 
ATOM     24  C   UNL     1      81.381 -11.587  30.387  0.00  0.00    +0.041 A 
ATOM     25  C   UNL     1      81.938 -10.341  30.659  0.00  0.00    -0.043 A 
ATOM     26  C   UNL     1      81.109  -9.223  30.790  0.00  0.00    -0.055 A 
ATOM     27 CL   UNL     1      82.393 -12.975  30.289  0.00  0.00    -0.084 Cl
ENDBRANCH  20  21
ENDBRANCH   7  20
TORSDOF 6
ENDMDL
MODEL 3
REMARK VINA RESULT:    -9.503      3.107      4.992
REMARK INTER + INTRA:         -14.671
REMARK INTER:                 -12.578
REMARK INTRA:                  -2.093
REMARK UNBOUND:                -1.834
REMARK  Name = 16c.sdf
REMARK  6 active torsions:
REMARK  status: ('A' for Active; 'I' for Inactive)
REMARK    1  A    between atoms: N_7  and  C_11
REMARK    2  A    between atoms: C_9  and  C_10
REMARK    3  A    between atoms: C_10  and  O_19
REMARK    4  A    between atoms: C_11  and  C_12
REMARK    5  A    between atoms: O_19  and  C_20
REMARK    6  A    between atoms: C_20  and  C_21
REMARK                            x       y       z     vdW  Elec       q    Type
REMARK                         _______ _______ _______ _____ _____    ______ ____
ROOT
ATOM      1  C   UNL     1      79.063  -7.832  31.698  0.00  0.00    -0.061 A 
ATOM      2  C   UNL     1      78.933  -8.881  30.791  0.00  0.00    -0.060 A 
ATOM      3  C   UNL     1      78.002  -8.821  29.746  0.00  0.00    -0.038 A 
ATOM      4  C   UNL     1      77.205  -7.670  29.629  0.00  0.00    +0.050 A 
ATOM      5  C   UNL     1      77.349  -6.591  30.505  0.00  0.00    +0.005 A 
ATOM      6  C   UNL     1      78.287  -6.680  31.554  0.00  0.00    -0.052 A 
ATOM      7  N   UNL     1      76.198  -7.334  28.743  0.00  0.00    -0.342 N 
ATOM      8  C   UNL     1      75.765  -6.053  28.992  0.00  0.00    +0.011 A 
ATOM      9  C   UNL     1      76.471  -5.553  30.069  0.00  0.00    +0.003 A 
ENDROOT
BRANCH   9  10
ATOM     10  C   UNL     1      76.387  -4.174  30.636  0.00  0.00    +0.075 C 
BRANCH  10  11
ATOM     11  O   UNL     1      77.641  -3.483  30.611  0.00  0.00    -0.371 OA
BRANCH  11  12
ATOM     12  C   UNL     1      78.049  -3.140  29.290  0.00  0.00    +0.073 C 
BRANCH  12  13
ATOM     13  C   UNL     1      79.329  -3.874  28.984  0.00  0.00    -0.022 A 
ATOM     14  C   UNL     1      79.371  -4.826  27.956  0.00  0.00    -0.055 A 
ATOM     15  C   UNL     1      80.554  -5.510  27.674  0.00  0.00    -0.043 A 
ATOM     16  C   UNL     1      81.696  -5.255  28.430  0.00  0.00    +0.041 A 
ATOM     17  C   UNL     1      81.664  -4.319  29.464  0.00  0.00    -0.043 A 
ATOM     18  C   UNL     1      80.481  -3.639  29.745  0.00  0.00    -0.055 A 
ATOM     19 CL   UNL     1      83.155  -6.098  28.085  0.00  0.00    -0.084 Cl
ENDBRANCH  12  13
ENDBRANCH  11  12
ENDBRANCH  10  11
ENDBRANCH   9  10
BRANCH   7  20
ATOM     20  C   UNL     1      75.602  -8.209  27.735  0.00  0.00    +0.048 C 
BRANCH  20  21
ATOM     21  C   UNL     1      76.616  -8.656  26.711  0.00  0.00    -0.028 A 
ATOM     22  C   UNL     1      77.485  -7.727  26.119  0.00  0.00    -0.055 A 
ATOM     23  C   UNL     1      78.361  -8.118  25.104  0.00  0.00    -0.043 A 
ATOM     24  C   UNL     1      78.381  -9.444  24.682  0.00  0.00    +0.041 A 
ATOM     25  C   UNL     1      77.558 -10.390  25.288  0.00  0.00    -0.043 A 
ATOM     26  C   UNL     1      76.680  -9.998  26.302  0.00  0.00    -0.055 A 
ATOM     27 CL   UNL     1      79.416  -9.913  23.389  0.00  0.00    -0.084 Cl
ENDBRANCH  20  21
ENDBRANCH   7  20
TORSDOF 6
ENDMDL
