MODEL 1
REMARK VINA RESULT:    -8.386      0.000      0.000
REMARK INTER + INTRA:         -12.056
REMARK INTER:                 -11.328
REMARK INTRA:                  -0.728
REMARK UNBOUND:                -0.728
REMARK  Name = 17h.sdf
REMARK  8 active torsions:
REMARK  status: ('A' for Active; 'I' for Inactive)
REMARK    1  A    between atoms: N_7  and  C_16
REMARK    2  A    between atoms: C_9  and  C_10
REMARK    3  A    between atoms: N_11  and  N_12
REMARK    4  A    between atoms: C_16  and  C_17
REMARK    5  A    between atoms: C_20  and  O_23
REMARK    6  A    between atoms: C_21  and  O_24
REMARK    7  A    between atoms: O_23  and  C_25
REMARK    8  A    between atoms: O_24  and  C_26
REMARK                            x       y       z     vdW  Elec       q    Type
REMARK                         _______ _______ _______ _____ _____    ______ ____
ROOT
ATOM      1  C   UNL     1      84.281 -14.278  25.304  0.00  0.00    -0.061 A 
ATOM      2  C   UNL     1      83.157 -14.727  24.619  0.00  0.00    -0.060 A 
ATOM      3  C   UNL     1      82.062 -13.884  24.401  0.00  0.00    -0.038 A 
ATOM      4  C   UNL     1      82.127 -12.570  24.893  0.00  0.00    +0.050 A 
ATOM      5  C   UNL     1      83.261 -12.086  25.559  0.00  0.00    +0.009 A 
ATOM      6  C   UNL     1      84.349 -12.963  25.770  0.00  0.00    -0.052 A 
ATOM      7  N   UNL     1      81.200 -11.545  24.878  0.00  0.00    -0.342 N 
ATOM      8  C   UNL     1      81.729 -10.433  25.484  0.00  0.00    +0.015 A 
ATOM      9  C   UNL     1      83.015 -10.719  25.894  0.00  0.00    +0.020 A 
ENDROOT
BRANCH   9  10
ATOM     10  C   UNL     1      83.910  -9.791  26.552  0.00  0.00    +0.055 C 
ATOM     11  N   UNL     1      85.113  -9.656  26.092  0.00  0.00    -0.186 NA
BRANCH  11  12
ATOM     12  N   UNL     1      85.906  -8.779  26.783  0.00  0.00    -0.191 N 
ATOM     13  C   UNL     1      87.090  -9.181  27.353  0.00  0.00    +0.317 C 
ATOM     14  O   UNL     1      87.792  -8.443  28.028  0.00  0.00    -0.251 OA
ATOM     15  N   UNL     1      87.421 -10.470  27.089  0.00  0.00    -0.312 N 
ATOM     16  H   UNL     1      85.623  -7.841  26.874  0.00  0.00    +0.000 HD
ATOM     17  H   UNL     1      86.825 -11.028  26.539  0.00  0.00    +0.000 HD
ATOM     18  H   UNL     1      88.257 -10.846  27.447  0.00  0.00    +0.000 HD
ENDBRANCH  11  12
ENDBRANCH   9  10
BRANCH   7  19
ATOM     19  C   UNL     1      79.793 -11.662  24.505  0.00  0.00    +0.048 C 
BRANCH  19  20
ATOM     20  C   UNL     1      78.828 -10.947  25.423  0.00  0.00    -0.024 A 
ATOM     21  C   UNL     1      78.083  -9.842  24.997  0.00  0.00    -0.053 A 
ATOM     22  C   UNL     1      77.354  -9.073  25.911  0.00  0.00    -0.016 A 
ATOM     23  C   UNL     1      77.370  -9.386  27.272  0.00  0.00    +0.162 A 
ATOM     24  C   UNL     1      78.073 -10.524  27.711  0.00  0.00    +0.162 A 
ATOM     25  C   UNL     1      78.791 -11.294  26.785  0.00  0.00    -0.011 A 
BRANCH  23  26
ATOM     26  O   UNL     1      76.747  -8.644  28.245  0.00  0.00    -0.491 OA
ATOM     27  C   UNL     1      75.796  -7.675  27.826  0.00  0.00    +0.079 C 
ENDBRANCH  23  26
BRANCH  24  28
ATOM     28  O   UNL     1      78.033 -10.774  29.061  0.00  0.00    -0.491 OA
ATOM     29  C   UNL     1      79.269 -10.922  29.744  0.00  0.00    +0.079 C 
ENDBRANCH  24  28
ENDBRANCH  19  20
ENDBRANCH   7  19
TORSDOF 6
ENDMDL
MODEL 2
REMARK VINA RESULT:    -8.312      3.174      5.061
REMARK INTER + INTRA:         -11.955
REMARK INTER:                 -11.097
REMARK INTRA:                  -0.858
REMARK UNBOUND:                -0.728
REMARK  Name = 17h.sdf
REMARK  8 active torsions:
REMARK  status: ('A' for Active; 'I' for Inactive)
REMARK    1  A    between atoms: N_7  and  C_16
REMARK    2  A    between atoms: C_9  and  C_10
REMARK    3  A    between atoms: N_11  and  N_12
REMARK    4  A    between atoms: C_16  and  C_17
REMARK    5  A    between atoms: C_20  and  O_23
REMARK    6  A    between atoms: C_21  and  O_24
REMARK    7  A    between atoms: O_23  and  C_25
REMARK    8  A    between atoms: O_24  and  C_26
REMARK                            x       y       z     vdW  Elec       q    Type
REMARK                         _______ _______ _______ _____ _____    ______ ____
ROOT
ATOM      1  C   UNL     1      79.714 -11.478  30.484  0.00  0.00    -0.061 A 
ATOM      2  C   UNL     1      78.409 -11.034  30.298  0.00  0.00    -0.060 A 
ATOM      3  C   UNL     1      77.898 -10.819  29.012  0.00  0.00    -0.038 A 
ATOM      4  C   UNL     1      78.739 -11.063  27.914  0.00  0.00    +0.050 A 
ATOM      5  C   UNL     1      80.047 -11.538  28.077  0.00  0.00    +0.009 A 
ATOM      6  C   UNL     1      80.537 -11.740  29.386  0.00  0.00    -0.052 A 
ATOM      7  N   UNL     1      78.537 -10.893  26.557  0.00  0.00    -0.342 N 
ATOM      8  C   UNL     1      79.661 -11.275  25.870  0.00  0.00    +0.015 A 
ATOM      9  C   UNL     1      80.610 -11.708  26.775  0.00  0.00    +0.020 A 
ENDROOT
BRANCH   9  10
ATOM     10  C   UNL     1      81.922 -12.216  26.433  0.00  0.00    +0.055 C 
ATOM     11  N   UNL     1      82.138 -13.489  26.523  0.00  0.00    -0.186 NA
BRANCH  11  12
ATOM     12  N   UNL     1      83.410 -13.888  26.207  0.00  0.00    -0.191 N 
ATOM     13  C   UNL     1      83.666 -14.638  25.085  0.00  0.00    +0.317 C 
ATOM     14  O   UNL     1      84.777 -15.064  24.805  0.00  0.00    -0.251 OA
ATOM     15  N   UNL     1      82.578 -14.854  24.303  0.00  0.00    -0.312 N 
ATOM     16  H   UNL     1      84.156 -13.634  26.797  0.00  0.00    +0.000 HD
ATOM     17  H   UNL     1      81.703 -14.491  24.569  0.00  0.00    +0.000 HD
ATOM     18  H   UNL     1      82.665 -15.374  23.472  0.00  0.00    +0.000 HD
ENDBRANCH  11  12
ENDBRANCH   9  10
BRANCH   7  19
ATOM     19  C   UNL     1      77.414 -10.197  25.935  0.00  0.00    +0.048 C 
BRANCH  19  20
ATOM     20  C   UNL     1      77.164  -8.800  26.453  0.00  0.00    -0.024 A 
ATOM     21  C   UNL     1      78.132  -7.793  26.361  0.00  0.00    -0.053 A 
ATOM     22  C   UNL     1      77.962  -6.572  27.023  0.00  0.00    -0.016 A 
ATOM     23  C   UNL     1      76.827  -6.341  27.803  0.00  0.00    +0.162 A 
ATOM     24  C   UNL     1      75.821  -7.323  27.866  0.00  0.00    +0.162 A 
ATOM     25  C   UNL     1      75.996  -8.538  27.190  0.00  0.00    -0.011 A 
BRANCH  23  26
ATOM     26  O   UNL     1      76.616  -5.205  28.546  0.00  0.00    -0.491 OA
ATOM     27  C   UNL     1      77.615  -4.196  28.504  0.00  0.00    +0.079 C 
ENDBRANCH  23  26
BRANCH  24  28
ATOM     28  O   UNL     1      74.729  -7.020  28.643  0.00  0.00    -0.491 OA
ATOM     29  C   UNL     1      73.443  -7.344  28.135  0.00  0.00    +0.079 C 
ENDBRANCH  24  28
ENDBRANCH  19  20
ENDBRANCH   7  19
TORSDOF 6
ENDMDL
MODEL 3
REMARK VINA RESULT:    -8.306      1.767      2.321
REMARK INTER + INTRA:         -11.947
REMARK INTER:                 -11.093
REMARK INTRA:                  -0.854
REMARK UNBOUND:                -0.728
REMARK  Name = 17h.sdf
REMARK  8 active torsions:
REMARK  status: ('A' for Active; 'I' for Inactive)
REMARK    1  A    between atoms: N_7  and  C_16
REMARK    2  A    between atoms: C_9  and  C_10
REMARK    3  A    between atoms: N_11  and  N_12
REMARK    4  A    between atoms: C_16  and  C_17
REMARK    5  A    between atoms: C_20  and  O_23
REMARK    6  A    between atoms: C_21  and  O_24
REMARK    7  A    between atoms: O_23  and  C_25
REMARK    8  A    between atoms: O_24  and  C_26
REMARK                            x       y       z     vdW  Elec       q    Type
REMARK                         _______ _______ _______ _____ _____    ______ ____
ROOT
ATOM      1  C   UNL     1      82.147 -13.855  24.989  0.00  0.00    -0.061 A 
ATOM      2  C   UNL     1      80.982 -13.775  24.233  0.00  0.00    -0.060 A 
ATOM      3  C   UNL     1      80.359 -12.544  23.998  0.00  0.00    -0.038 A 
ATOM      4  C   UNL     1      80.940 -11.390  24.548  0.00  0.00    +0.050 A 
ATOM      5  C   UNL     1      82.129 -11.443  25.288  0.00  0.00    +0.009 A 
ATOM      6  C   UNL     1      82.733 -12.700  25.513  0.00  0.00    -0.052 A 
ATOM      7  N   UNL     1      80.533 -10.069  24.533  0.00  0.00    -0.342 N 
ATOM      8  C   UNL     1      81.442  -9.296  25.210  0.00  0.00    +0.015 A 
ATOM      9  C   UNL     1      82.461 -10.107  25.670  0.00  0.00    +0.020 A 
ENDROOT
BRANCH   9  10
ATOM     10  C   UNL     1      83.621  -9.655  26.408  0.00  0.00    +0.055 C 
ATOM     11  N   UNL     1      84.794  -9.824  25.886  0.00  0.00    -0.186 NA
BRANCH  11  12
ATOM     12  N   UNL     1      85.842  -9.394  26.657  0.00  0.00    -0.191 N 
ATOM     13  C   UNL     1      86.739 -10.281  27.202  0.00  0.00    +0.317 C 
ATOM     14  O   UNL     1      87.648  -9.940  27.944  0.00  0.00    -0.251 OA
ATOM     15  N   UNL     1      86.537 -11.570  26.833  0.00  0.00    -0.312 N 
ATOM     16  H   UNL     1      85.954  -8.431  26.825  0.00  0.00    +0.000 HD
ATOM     17  H   UNL     1      85.792 -11.798  26.233  0.00  0.00    +0.000 HD
ATOM     18  H   UNL     1      87.136 -12.277  27.166  0.00  0.00    +0.000 HD
ENDBRANCH  11  12
ENDBRANCH   9  10
BRANCH   7  19
ATOM     19  C   UNL     1      79.233  -9.574  24.088  0.00  0.00    +0.048 C 
BRANCH  19  20
ATOM     20  C   UNL     1      78.283  -9.190  25.199  0.00  0.00    -0.024 A 
ATOM     21  C   UNL     1      77.358 -10.096  25.728  0.00  0.00    -0.053 A 
ATOM     22  C   UNL     1      76.357  -9.668  26.608  0.00  0.00    -0.016 A 
ATOM     23  C   UNL     1      76.253  -8.322  26.962  0.00  0.00    +0.162 A 
ATOM     24  C   UNL     1      77.206  -7.405  26.480  0.00  0.00    +0.162 A 
ATOM     25  C   UNL     1      78.212  -7.846  25.608  0.00  0.00    -0.011 A 
BRANCH  23  26
ATOM     26  O   UNL     1      75.260  -7.804  27.756  0.00  0.00    -0.491 OA
ATOM     27  C   UNL     1      75.404  -7.938  29.164  0.00  0.00    +0.079 C 
ENDBRANCH  23  26
BRANCH  24  28
ATOM     28  O   UNL     1      77.047  -6.102  26.881  0.00  0.00    -0.491 OA
ATOM     29  C   UNL     1      77.961  -5.586  27.839  0.00  0.00    +0.079 C 
ENDBRANCH  24  28
ENDBRANCH  19  20
ENDBRANCH   7  19
TORSDOF 6
ENDMDL
