MODEL 1
REMARK VINA RESULT:    -8.570      0.000      0.000
REMARK INTER + INTRA:         -11.959
REMARK INTER:                 -11.075
REMARK INTRA:                  -0.884
REMARK UNBOUND:                -0.884
REMARK  Name = 17i.sdf
REMARK  6 active torsions:
REMARK  status: ('A' for Active; 'I' for Inactive)
REMARK    1  A    between atoms: N_7  and  C_16
REMARK    2  A    between atoms: C_9  and  C_10
REMARK    3  A    between atoms: N_11  and  N_12
REMARK    4  A    between atoms: C_16  and  C_17
REMARK    5  A    between atoms: C_19  and  O_23
REMARK    6  A    between atoms: O_23  and  C_24
REMARK                            x       y       z     vdW  Elec       q    Type
REMARK                         _______ _______ _______ _____ _____    ______ ____
ROOT
ATOM      1  C   UNL     1      82.002 -13.749  25.259  0.00  0.00    -0.061 A 
ATOM      2  C   UNL     1      80.931 -13.668  24.375  0.00  0.00    -0.060 A 
ATOM      3  C   UNL     1      80.400 -12.432  24.000  0.00  0.00    -0.038 A 
ATOM      4  C   UNL     1      80.975 -11.269  24.540  0.00  0.00    +0.050 A 
ATOM      5  C   UNL     1      82.083 -11.324  25.395  0.00  0.00    +0.009 A 
ATOM      6  C   UNL     1      82.594 -12.587  25.764  0.00  0.00    -0.052 A 
ATOM      7  N   UNL     1      80.627  -9.938  24.413  0.00  0.00    -0.342 N 
ATOM      8  C   UNL     1      81.514  -9.160  25.115  0.00  0.00    +0.015 A 
ATOM      9  C   UNL     1      82.454  -9.980  25.708  0.00  0.00    +0.020 A 
ENDROOT
BRANCH   9  10
ATOM     10  C   UNL     1      83.578  -9.533  26.502  0.00  0.00    +0.055 C 
ATOM     11  N   UNL     1      84.766  -9.610  25.997  0.00  0.00    -0.186 NA
BRANCH  11  12
ATOM     12  N   UNL     1      85.780  -9.197  26.822  0.00  0.00    -0.191 N 
ATOM     13  C   UNL     1      86.706 -10.082  27.313  0.00  0.00    +0.317 C 
ATOM     14  O   UNL     1      87.587  -9.761  28.105  0.00  0.00    -0.251 OA
ATOM     15  N   UNL     1      86.570 -11.346  26.844  0.00  0.00    -0.312 N 
ATOM     16  H   UNL     1      85.845  -8.245  27.067  0.00  0.00    +0.000 HD
ATOM     17  H   UNL     1      85.849 -11.560  26.209  0.00  0.00    +0.000 HD
ATOM     18  H   UNL     1      87.192 -12.049  27.138  0.00  0.00    +0.000 HD
ENDBRANCH  11  12
ENDBRANCH   9  10
BRANCH   7  19
ATOM     19  C   UNL     1      79.383  -9.429  23.840  0.00  0.00    +0.048 C 
BRANCH  19  20
ATOM     20  C   UNL     1      78.271  -9.201  24.835  0.00  0.00    -0.024 A 
ATOM     21  C   UNL     1      78.074  -7.943  25.435  0.00  0.00    -0.015 A 
ATOM     22  C   UNL     1      77.195  -7.789  26.511  0.00  0.00    +0.120 A 
ATOM     23  C   UNL     1      76.464  -8.890  26.958  0.00  0.00    -0.020 A 
ATOM     24  C   UNL     1      76.615 -10.134  26.349  0.00  0.00    -0.058 A 
ATOM     25  C   UNL     1      77.519 -10.292  25.300  0.00  0.00    -0.057 A 
BRANCH  22  26
ATOM     26  O   UNL     1      76.993  -6.638  27.221  0.00  0.00    -0.495 OA
ATOM     27  C   UNL     1      75.689  -6.072  27.178  0.00  0.00    +0.079 C 
ENDBRANCH  22  26
ENDBRANCH  19  20
ENDBRANCH   7  19
TORSDOF 5
ENDMDL
MODEL 2
REMARK VINA RESULT:    -8.358      1.940      2.522
REMARK INTER + INTRA:         -11.686
REMARK INTER:                 -11.224
REMARK INTRA:                  -0.462
REMARK UNBOUND:                -0.884
REMARK  Name = 17i.sdf
REMARK  6 active torsions:
REMARK  status: ('A' for Active; 'I' for Inactive)
REMARK    1  A    between atoms: N_7  and  C_16
REMARK    2  A    between atoms: C_9  and  C_10
REMARK    3  A    between atoms: N_11  and  N_12
REMARK    4  A    between atoms: C_16  and  C_17
REMARK    5  A    between atoms: C_19  and  O_23
REMARK    6  A    between atoms: O_23  and  C_24
REMARK                            x       y       z     vdW  Elec       q    Type
REMARK                         _______ _______ _______ _____ _____    ______ ____
ROOT
ATOM      1  C   UNL     1      84.709 -14.373  25.368  0.00  0.00    -0.061 A 
ATOM      2  C   UNL     1      83.631 -14.826  24.614  0.00  0.00    -0.060 A 
ATOM      3  C   UNL     1      82.518 -14.013  24.390  0.00  0.00    -0.038 A 
ATOM      4  C   UNL     1      82.513 -12.723  24.947  0.00  0.00    +0.050 A 
ATOM      5  C   UNL     1      83.606 -12.229  25.670  0.00  0.00    +0.009 A 
ATOM      6  C   UNL     1      84.715 -13.075  25.888  0.00  0.00    -0.052 A 
ATOM      7  N   UNL     1      81.544 -11.739  24.956  0.00  0.00    -0.342 N 
ATOM      8  C   UNL     1      82.017 -10.630  25.612  0.00  0.00    +0.015 A 
ATOM      9  C   UNL     1      83.307 -10.880  26.037  0.00  0.00    +0.020 A 
ENDROOT
BRANCH   9  10
ATOM     10  C   UNL     1      84.160  -9.942  26.734  0.00  0.00    +0.055 C 
ATOM     11  N   UNL     1      85.270  -9.579  26.180  0.00  0.00    -0.186 NA
BRANCH  11  12
ATOM     12  N   UNL     1      86.037  -8.713  26.916  0.00  0.00    -0.191 N 
ATOM     13  C   UNL     1      87.283  -9.070  27.366  0.00  0.00    +0.317 C 
ATOM     14  O   UNL     1      87.969  -8.347  28.082  0.00  0.00    -0.251 OA
ATOM     15  N   UNL     1      87.697 -10.290  26.949  0.00  0.00    -0.312 N 
ATOM     16  H   UNL     1      85.686  -7.817  27.125  0.00  0.00    +0.000 HD
ATOM     17  H   UNL     1      87.114 -10.838  26.375  0.00  0.00    +0.000 HD
ATOM     18  H   UNL     1      88.580 -10.629  27.220  0.00  0.00    +0.000 HD
ENDBRANCH  11  12
ENDBRANCH   9  10
BRANCH   7  19
ATOM     19  C   UNL     1      80.147 -11.909  24.561  0.00  0.00    +0.048 C 
BRANCH  19  20
ATOM     20  C   UNL     1      79.141 -11.258  25.480  0.00  0.00    -0.024 A 
ATOM     21  C   UNL     1      79.229 -11.400  26.877  0.00  0.00    -0.015 A 
ATOM     22  C   UNL     1      78.182 -10.989  27.708  0.00  0.00    +0.120 A 
ATOM     23  C   UNL     1      77.061 -10.380  27.144  0.00  0.00    -0.020 A 
ATOM     24  C   UNL     1      76.975 -10.193  25.766  0.00  0.00    -0.058 A 
ATOM     25  C   UNL     1      78.004 -10.638  24.937  0.00  0.00    -0.057 A 
BRANCH  22  26
ATOM     26  O   UNL     1      78.125 -11.157  29.064  0.00  0.00    -0.495 OA
ATOM     27  C   UNL     1      78.548 -10.064  29.870  0.00  0.00    +0.079 C 
ENDBRANCH  22  26
ENDBRANCH  19  20
ENDBRANCH   7  19
TORSDOF 5
ENDMDL
MODEL 3
REMARK VINA RESULT:    -8.164      2.173      2.232
REMARK INTER + INTRA:         -11.434
REMARK INTER:                 -10.675
REMARK INTRA:                  -0.759
REMARK UNBOUND:                -0.884
REMARK  Name = 17i.sdf
REMARK  6 active torsions:
REMARK  status: ('A' for Active; 'I' for Inactive)
REMARK    1  A    between atoms: N_7  and  C_16
REMARK    2  A    between atoms: C_9  and  C_10
REMARK    3  A    between atoms: N_11  and  N_12
REMARK    4  A    between atoms: C_16  and  C_17
REMARK    5  A    between atoms: C_19  and  O_23
REMARK    6  A    between atoms: O_23  and  C_24
REMARK                            x       y       z     vdW  Elec       q    Type
REMARK                         _______ _______ _______ _____ _____    ______ ____
ROOT
ATOM      1  C   UNL     1      83.073 -14.353  25.558  0.00  0.00    -0.061 A 
ATOM      2  C   UNL     1      82.292 -14.317  24.407  0.00  0.00    -0.060 A 
ATOM      3  C   UNL     1      81.601 -13.159  24.042  0.00  0.00    -0.038 A 
ATOM      4  C   UNL     1      81.713 -12.029  24.870  0.00  0.00    +0.050 A 
ATOM      5  C   UNL     1      82.530 -12.027  26.008  0.00  0.00    +0.009 A 
ATOM      6  C   UNL     1      83.211 -13.213  26.357  0.00  0.00    -0.052 A 
ATOM      7  N   UNL     1      81.104 -10.791  24.807  0.00  0.00    -0.342 N 
ATOM      8  C   UNL     1      81.555 -10.002  25.835  0.00  0.00    +0.015 A 
ATOM      9  C   UNL     1      82.469 -10.719  26.581  0.00  0.00    +0.020 A 
ENDROOT
BRANCH   9  10
ATOM     10  C   UNL     1      83.197 -10.219  27.727  0.00  0.00    +0.055 C 
ATOM     11  N   UNL     1      82.756 -10.494  28.912  0.00  0.00    -0.186 NA
BRANCH  11  12
ATOM     12  N   UNL     1      83.482  -9.959  29.945  0.00  0.00    -0.191 N 
ATOM     13  C   UNL     1      84.086 -10.758  30.881  0.00  0.00    +0.317 C 
ATOM     14  O   UNL     1      84.687 -10.315  31.855  0.00  0.00    -0.251 OA
ATOM     15  N   UNL     1      83.969 -12.086  30.638  0.00  0.00    -0.312 N 
ATOM     16  H   UNL     1      83.571  -8.981  30.015  0.00  0.00    +0.000 HD
ATOM     17  H   UNL     1      83.477 -12.399  29.845  0.00  0.00    +0.000 HD
ATOM     18  H   UNL     1      84.374 -12.737  31.256  0.00  0.00    +0.000 HD
ENDBRANCH  11  12
ENDBRANCH   9  10
BRANCH   7  19
ATOM     19  C   UNL     1      79.975 -10.435  23.950  0.00  0.00    +0.048 C 
BRANCH  19  20
ATOM     20  C   UNL     1      78.741  -9.968  24.684  0.00  0.00    -0.024 A 
ATOM     21  C   UNL     1      78.538  -8.607  24.980  0.00  0.00    -0.015 A 
ATOM     22  C   UNL     1      77.517  -8.203  25.845  0.00  0.00    +0.120 A 
ATOM     23  C   UNL     1      76.655  -9.162  26.378  0.00  0.00    -0.020 A 
ATOM     24  C   UNL     1      76.815 -10.510  26.063  0.00  0.00    -0.058 A 
ATOM     25  C   UNL     1      77.857 -10.912  25.229  0.00  0.00    -0.057 A 
BRANCH  22  26
ATOM     26  O   UNL     1      77.285  -6.923  26.268  0.00  0.00    -0.495 OA
ATOM     27  C   UNL     1      77.854  -6.542  27.515  0.00  0.00    +0.079 C 
ENDBRANCH  22  26
ENDBRANCH  19  20
ENDBRANCH   7  19
TORSDOF 5
ENDMDL
