MODEL 1
REMARK VINA RESULT:    -8.233      0.000      0.000
REMARK INTER + INTRA:         -12.631
REMARK INTER:                 -11.602
REMARK INTRA:                  -1.029
REMARK UNBOUND:                -1.029
REMARK  Name = 17k.sdf
REMARK  10 active torsions:
REMARK  status: ('A' for Active; 'I' for Inactive)
REMARK    1  A    between atoms: N_7  and  C_16
REMARK    2  A    between atoms: C_9  and  C_10
REMARK    3  A    between atoms: N_11  and  N_12
REMARK    4  A    between atoms: C_16  and  C_17
REMARK    5  A    between atoms: C_19  and  O_23
REMARK    6  A    between atoms: C_20  and  O_27
REMARK    7  A    between atoms: C_21  and  O_25
REMARK    8  A    between atoms: O_23  and  C_24
REMARK    9  A    between atoms: O_25  and  C_26
REMARK   10  A    between atoms: O_27  and  C_28
REMARK                            x       y       z     vdW  Elec       q    Type
REMARK                         _______ _______ _______ _____ _____    ______ ____
ROOT
ATOM      1  C   UNL     1      84.731 -14.148  25.333  0.00  0.00    -0.061 A 
ATOM      2  C   UNL     1      83.504 -14.732  25.036  0.00  0.00    -0.060 A 
ATOM      3  C   UNL     1      82.330 -13.972  25.020  0.00  0.00    -0.038 A 
ATOM      4  C   UNL     1      82.423 -12.602  25.319  0.00  0.00    +0.050 A 
ATOM      5  C   UNL     1      83.652 -11.983  25.579  0.00  0.00    +0.009 A 
ATOM      6  C   UNL     1      84.820 -12.777  25.594  0.00  0.00    -0.052 A 
ATOM      7  N   UNL     1      81.449 -11.627  25.423  0.00  0.00    -0.342 N 
ATOM      8  C   UNL     1      82.034 -10.412  25.674  0.00  0.00    +0.015 A 
ATOM      9  C   UNL     1      83.402 -10.587  25.765  0.00  0.00    +0.020 A 
ENDROOT
BRANCH   9  10
ATOM     10  C   UNL     1      84.374  -9.541  25.997  0.00  0.00    +0.055 C 
ATOM     11  N   UNL     1      85.084  -9.575  27.079  0.00  0.00    -0.186 NA
BRANCH  11  12
ATOM     12  N   UNL     1      85.967  -8.539  27.231  0.00  0.00    -0.191 N 
ATOM     13  C   UNL     1      87.322  -8.749  27.234  0.00  0.00    +0.317 C 
ATOM     14  O   UNL     1      88.136  -7.851  27.414  0.00  0.00    -0.251 OA
ATOM     15  N   UNL     1      87.687 -10.036  27.018  0.00  0.00    -0.312 N 
ATOM     16  H   UNL     1      85.621  -7.624  27.341  0.00  0.00    +0.000 HD
ATOM     17  H   UNL     1      87.000 -10.726  26.877  0.00  0.00    +0.000 HD
ATOM     18  H   UNL     1      88.641 -10.281  27.000  0.00  0.00    +0.000 HD
ENDBRANCH  11  12
ENDBRANCH   9  10
BRANCH   7  19
ATOM     19  C   UNL     1      80.003 -11.834  25.338  0.00  0.00    +0.049 C 
BRANCH  19  20
ATOM     20  C   UNL     1      79.201 -11.163  26.432  0.00  0.00    -0.021 A 
ATOM     21  C   UNL     1      78.196 -10.223  26.189  0.00  0.00    -0.011 A 
ATOM     22  C   UNL     1      77.539  -9.547  27.233  0.00  0.00    +0.165 A 
ATOM     23  C   UNL     1      77.855  -9.852  28.578  0.00  0.00    +0.204 A 
ATOM     24  C   UNL     1      78.821 -10.850  28.835  0.00  0.00    +0.165 A 
ATOM     25  C   UNL     1      79.479 -11.482  27.765  0.00  0.00    -0.011 A 
BRANCH  22  26
ATOM     26  O   UNL     1      76.589  -8.589  26.980  0.00  0.00    -0.491 OA
ATOM     27  C   UNL     1      77.016  -7.270  26.661  0.00  0.00    +0.079 C 
ENDBRANCH  22  26
BRANCH  24  28
ATOM     28  O   UNL     1      79.261 -11.335  30.043  0.00  0.00    -0.491 OA
ATOM     29  C   UNL     1      80.648 -11.563  30.245  0.00  0.00    +0.079 C 
ENDBRANCH  24  28
BRANCH  23  30
ATOM     30  O   UNL     1      77.294  -9.266  29.682  0.00  0.00    -0.488 OA
ATOM     31  C   UNL     1      77.942  -8.197  30.351  0.00  0.00    +0.079 C 
ENDBRANCH  23  30
ENDBRANCH  19  20
ENDBRANCH   7  19
TORSDOF 7
ENDMDL
MODEL 2
REMARK VINA RESULT:    -8.113      3.415      5.516
REMARK INTER + INTRA:         -12.461
REMARK INTER:                 -11.254
REMARK INTRA:                  -1.207
REMARK UNBOUND:                -1.029
REMARK  Name = 17k.sdf
REMARK  10 active torsions:
REMARK  status: ('A' for Active; 'I' for Inactive)
REMARK    1  A    between atoms: N_7  and  C_16
REMARK    2  A    between atoms: C_9  and  C_10
REMARK    3  A    between atoms: N_11  and  N_12
REMARK    4  A    between atoms: C_16  and  C_17
REMARK    5  A    between atoms: C_19  and  O_23
REMARK    6  A    between atoms: C_20  and  O_27
REMARK    7  A    between atoms: C_21  and  O_25
REMARK    8  A    between atoms: O_23  and  C_24
REMARK    9  A    between atoms: O_25  and  C_26
REMARK   10  A    between atoms: O_27  and  C_28
REMARK                            x       y       z     vdW  Elec       q    Type
REMARK                         _______ _______ _______ _____ _____    ______ ____
ROOT
ATOM      1  C   UNL     1      78.328 -10.853  24.509  0.00  0.00    -0.061 A 
ATOM      2  C   UNL     1      77.291 -10.316  25.267  0.00  0.00    -0.060 A 
ATOM      3  C   UNL     1      77.359 -10.291  26.663  0.00  0.00    -0.038 A 
ATOM      4  C   UNL     1      78.500 -10.828  27.281  0.00  0.00    +0.050 A 
ATOM      5  C   UNL     1      79.575 -11.334  26.539  0.00  0.00    +0.009 A 
ATOM      6  C   UNL     1      79.475 -11.352  25.131  0.00  0.00    -0.052 A 
ATOM      7  N   UNL     1      78.823 -10.980  28.616  0.00  0.00    -0.342 N 
ATOM      8  C   UNL     1      80.087 -11.503  28.731  0.00  0.00    +0.015 A 
ATOM      9  C   UNL     1      80.593 -11.725  27.464  0.00  0.00    +0.020 A 
ENDROOT
BRANCH   9  10
ATOM     10  C   UNL     1      81.908 -12.246  27.160  0.00  0.00    +0.055 C 
ATOM     11  N   UNL     1      82.006 -13.401  26.585  0.00  0.00    -0.186 NA
BRANCH  11  12
ATOM     12  N   UNL     1      83.284 -13.830  26.349  0.00  0.00    -0.191 N 
ATOM     13  C   UNL     1      83.606 -14.526  25.212  0.00  0.00    +0.317 C 
ATOM     14  O   UNL     1      84.730 -14.963  24.993  0.00  0.00    -0.251 OA
ATOM     15  N   UNL     1      82.576 -14.689  24.347  0.00  0.00    -0.312 N 
ATOM     16  H   UNL     1      83.987 -13.634  27.009  0.00  0.00    +0.000 HD
ATOM     17  H   UNL     1      81.689 -14.321  24.563  0.00  0.00    +0.000 HD
ATOM     18  H   UNL     1      82.714 -15.176  23.502  0.00  0.00    +0.000 HD
ENDBRANCH  11  12
ENDBRANCH   9  10
BRANCH   7  19
ATOM     19  C   UNL     1      77.954 -10.689  29.757  0.00  0.00    +0.049 C 
BRANCH  19  20
ATOM     20  C   UNL     1      77.751  -9.216  30.039  0.00  0.00    -0.021 A 
ATOM     21  C   UNL     1      78.794  -8.334  30.334  0.00  0.00    -0.011 A 
ATOM     22  C   UNL     1      78.559  -6.993  30.687  0.00  0.00    +0.165 A 
ATOM     23  C   UNL     1      77.236  -6.489  30.699  0.00  0.00    +0.204 A 
ATOM     24  C   UNL     1      76.181  -7.354  30.336  0.00  0.00    +0.165 A 
ATOM     25  C   UNL     1      76.452  -8.697  30.019  0.00  0.00    -0.011 A 
BRANCH  22  26
ATOM     26  O   UNL     1      79.588  -6.149  31.025  0.00  0.00    -0.491 OA
ATOM     27  C   UNL     1      80.320  -5.514  29.984  0.00  0.00    +0.079 C 
ENDBRANCH  22  26
BRANCH  24  28
ATOM     28  O   UNL     1      74.837  -7.085  30.241  0.00  0.00    -0.491 OA
ATOM     29  C   UNL     1      74.166  -7.285  29.006  0.00  0.00    +0.079 C 
ENDBRANCH  24  28
BRANCH  23  30
ATOM     30  O   UNL     1      76.873  -5.209  31.027  0.00  0.00    -0.488 OA
ATOM     31  C   UNL     1      76.762  -4.203  30.035  0.00  0.00    +0.079 C 
ENDBRANCH  23  30
ENDBRANCH  19  20
ENDBRANCH   7  19
TORSDOF 7
ENDMDL
MODEL 3
REMARK VINA RESULT:    -8.060      3.724      5.591
REMARK INTER + INTRA:         -12.387
REMARK INTER:                 -11.385
REMARK INTRA:                  -1.002
REMARK UNBOUND:                -1.029
REMARK  Name = 17k.sdf
REMARK  10 active torsions:
REMARK  status: ('A' for Active; 'I' for Inactive)
REMARK    1  A    between atoms: N_7  and  C_16
REMARK    2  A    between atoms: C_9  and  C_10
REMARK    3  A    between atoms: N_11  and  N_12
REMARK    4  A    between atoms: C_16  and  C_17
REMARK    5  A    between atoms: C_19  and  O_23
REMARK    6  A    between atoms: C_20  and  O_27
REMARK    7  A    between atoms: C_21  and  O_25
REMARK    8  A    between atoms: O_23  and  C_24
REMARK    9  A    between atoms: O_25  and  C_26
REMARK   10  A    between atoms: O_27  and  C_28
REMARK                            x       y       z     vdW  Elec       q    Type
REMARK                         _______ _______ _______ _____ _____    ______ ____
ROOT
ATOM      1  C   UNL     1      80.053 -11.617  29.720  0.00  0.00    -0.061 A 
ATOM      2  C   UNL     1      78.831 -11.021  30.018  0.00  0.00    -0.060 A 
ATOM      3  C   UNL     1      77.975 -10.587  29.001  0.00  0.00    -0.038 A 
ATOM      4  C   UNL     1      78.384 -10.764  27.669  0.00  0.00    +0.050 A 
ATOM      5  C   UNL     1      79.589 -11.401  27.344  0.00  0.00    +0.009 A 
ATOM      6  C   UNL     1      80.436 -11.822  28.392  0.00  0.00    -0.052 A 
ATOM      7  N   UNL     1      77.783 -10.403  26.479  0.00  0.00    -0.342 N 
ATOM      8  C   UNL     1      78.538 -10.849  25.424  0.00  0.00    +0.015 A 
ATOM      9  C   UNL     1      79.661 -11.485  25.918  0.00  0.00    +0.020 A 
ENDROOT
BRANCH   9  10
ATOM     10  C   UNL     1      80.694 -12.114  25.123  0.00  0.00    +0.055 C 
ATOM     11  N   UNL     1      80.784 -13.405  25.122  0.00  0.00    -0.186 NA
BRANCH  11  12
ATOM     12  N   UNL     1      81.797 -13.920  24.360  0.00  0.00    -0.191 N 
ATOM     13  C   UNL     1      82.977 -14.334  24.924  0.00  0.00    +0.317 C 
ATOM     14  O   UNL     1      83.920 -14.755  24.265  0.00  0.00    -0.251 OA
ATOM     15  N   UNL     1      83.012 -14.239  26.275  0.00  0.00    -0.312 N 
ATOM     16  H   UNL     1      81.677 -13.995  23.386  0.00  0.00    +0.000 HD
ATOM     17  H   UNL     1      82.232 -13.894  26.765  0.00  0.00    +0.000 HD
ATOM     18  H   UNL     1      83.819 -14.515  26.768  0.00  0.00    +0.000 HD
ENDBRANCH  11  12
ENDBRANCH   9  10
BRANCH   7  19
ATOM     19  C   UNL     1      76.556  -9.619  26.330  0.00  0.00    +0.049 C 
BRANCH  19  20
ATOM     20  C   UNL     1      76.596  -8.251  26.978  0.00  0.00    -0.021 A 
ATOM     21  C   UNL     1      77.709  -7.407  26.934  0.00  0.00    -0.011 A 
ATOM     22  C   UNL     1      77.745  -6.186  27.630  0.00  0.00    +0.165 A 
ATOM     23  C   UNL     1      76.611  -5.756  28.360  0.00  0.00    +0.204 A 
ATOM     24  C   UNL     1      75.458  -6.570  28.354  0.00  0.00    +0.165 A 
ATOM     25  C   UNL     1      75.469  -7.801  27.673  0.00  0.00    -0.011 A 
BRANCH  22  26
ATOM     26  O   UNL     1      78.863  -5.389  27.621  0.00  0.00    -0.491 OA
ATOM     27  C   UNL     1      80.030  -5.839  28.298  0.00  0.00    +0.079 C 
ENDBRANCH  22  26
BRANCH  24  28
ATOM     28  O   UNL     1      74.241  -6.348  28.953  0.00  0.00    -0.491 OA
ATOM     29  C   UNL     1      73.346  -7.433  29.150  0.00  0.00    +0.079 C 
ENDBRANCH  24  28
BRANCH  23  30
ATOM     30  O   UNL     1      76.519  -4.595  29.081  0.00  0.00    -0.488 OA
ATOM     31  C   UNL     1      76.877  -4.556  30.453  0.00  0.00    +0.079 C 
ENDBRANCH  23  30
ENDBRANCH  19  20
ENDBRANCH   7  19
TORSDOF 7
ENDMDL
