MODEL 1
REMARK VINA RESULT:   -10.600      0.000      0.000
REMARK INTER + INTRA:         -14.550
REMARK INTER:                 -13.698
REMARK INTRA:                  -0.852
REMARK UNBOUND:                -0.852
REMARK  Name = 18c.sdf
REMARK  5 active torsions:
REMARK  status: ('A' for Active; 'I' for Inactive)
REMARK    1  A    between atoms: N_7  and  C_12
REMARK    2  A    between atoms: C_9  and  C_10
REMARK    3  A    between atoms: N_11  and  N_19
REMARK    4  A    between atoms: C_12  and  C_13
REMARK    5  A    between atoms: C_20  and  C_22
REMARK                            x       y       z     vdW  Elec       q    Type
REMARK                         _______ _______ _______ _____ _____    ______ ____
ROOT
ATOM      1  C   UNL     1      81.191 -13.503  24.412  0.00  0.00    -0.061 A 
ATOM      2  C   UNL     1      82.424 -13.951  24.869  0.00  0.00    -0.060 A 
ATOM      3  C   UNL     1      82.946 -13.503  26.087  0.00  0.00    -0.038 A 
ATOM      4  C   UNL     1      82.191 -12.589  26.843  0.00  0.00    +0.050 A 
ATOM      5  C   UNL     1      80.923 -12.163  26.425  0.00  0.00    +0.009 A 
ATOM      6  C   UNL     1      80.429 -12.621  25.183  0.00  0.00    -0.052 A 
ATOM      7  N   UNL     1      82.461 -11.936  28.033  0.00  0.00    -0.342 N 
ATOM      8  C   UNL     1      81.372 -11.190  28.409  0.00  0.00    +0.015 A 
ATOM      9  C   UNL     1      80.394 -11.309  27.442  0.00  0.00    +0.020 A 
ENDROOT
BRANCH   9  10
ATOM     10  C   UNL     1      79.089 -10.684  27.467  0.00  0.00    +0.055 C 
ATOM     11  N   UNL     1      78.811  -9.814  28.381  0.00  0.00    -0.187 NA
BRANCH  11  12
ATOM     12  N   UNL     1      77.549  -9.283  28.341  0.00  0.00    -0.203 N 
ATOM     13  C   UNL     1      77.071  -8.567  29.428  0.00  0.00    +0.263 C 
ATOM     14  O   UNL     1      77.709  -8.335  30.456  0.00  0.00    -0.268 OA
ATOM     15  H   UNL     1      76.985  -9.410  27.544  0.00  0.00    +0.000 HD
BRANCH  13  16
ATOM     16  C   UNL     1      75.691  -8.022  29.295  0.00  0.00    +0.038 A 
ATOM     17  C   UNL     1      75.103  -7.761  28.049  0.00  0.00    -0.050 A 
ATOM     18  C   UNL     1      73.802  -7.253  27.982  0.00  0.00    -0.061 A 
ATOM     19  C   UNL     1      73.082  -7.013  29.153  0.00  0.00    -0.062 A 
ATOM     20  C   UNL     1      73.655  -7.288  30.394  0.00  0.00    -0.061 A 
ATOM     21  C   UNL     1      74.952  -7.797  30.465  0.00  0.00    -0.050 A 
ENDBRANCH  13  16
ENDBRANCH  11  12
ENDBRANCH   9  10
BRANCH   7  22
ATOM     22  C   UNL     1      83.739 -11.918  28.746  0.00  0.00    +0.048 C 
BRANCH  22  23
ATOM     23  C   UNL     1      84.713 -10.947  28.125  0.00  0.00    -0.028 A 
ATOM     24  C   UNL     1      85.979 -11.380  27.706  0.00  0.00    -0.055 A 
ATOM     25  C   UNL     1      86.928 -10.462  27.254  0.00  0.00    -0.043 A 
ATOM     26  C   UNL     1      86.611  -9.107  27.202  0.00  0.00    +0.041 A 
ATOM     27  C   UNL     1      85.337  -8.668  27.554  0.00  0.00    -0.043 A 
ATOM     28  C   UNL     1      84.389  -9.586  28.013  0.00  0.00    -0.055 A 
ATOM     29 CL   UNL     1      87.810  -7.968  26.729  0.00  0.00    -0.084 Cl
ENDBRANCH  22  23
ENDBRANCH   7  22
TORSDOF 5
ENDMDL
MODEL 2
REMARK VINA RESULT:   -10.113      1.657      2.098
REMARK INTER + INTRA:         -13.922
REMARK INTER:                 -12.994
REMARK INTRA:                  -0.928
REMARK UNBOUND:                -0.852
REMARK  Name = 18c.sdf
REMARK  5 active torsions:
REMARK  status: ('A' for Active; 'I' for Inactive)
REMARK    1  A    between atoms: N_7  and  C_12
REMARK    2  A    between atoms: C_9  and  C_10
REMARK    3  A    between atoms: N_11  and  N_19
REMARK    4  A    between atoms: C_12  and  C_13
REMARK    5  A    between atoms: C_20  and  C_22
REMARK                            x       y       z     vdW  Elec       q    Type
REMARK                         _______ _______ _______ _____ _____    ______ ____
ROOT
ATOM      1  C   UNL     1      78.958 -11.454  23.491  0.00  0.00    -0.061 A 
ATOM      2  C   UNL     1      80.111 -12.226  23.406  0.00  0.00    -0.060 A 
ATOM      3  C   UNL     1      80.869 -12.516  24.545  0.00  0.00    -0.038 A 
ATOM      4  C   UNL     1      80.435 -12.012  25.784  0.00  0.00    +0.050 A 
ATOM      5  C   UNL     1      79.249 -11.275  25.900  0.00  0.00    +0.009 A 
ATOM      6  C   UNL     1      78.512 -10.984  24.730  0.00  0.00    -0.052 A 
ATOM      7  N   UNL     1      80.991 -12.080  27.049  0.00  0.00    -0.342 N 
ATOM      8  C   UNL     1      80.148 -11.487  27.957  0.00  0.00    +0.015 A 
ATOM      9  C   UNL     1      79.054 -10.981  27.285  0.00  0.00    +0.020 A 
ENDROOT
BRANCH   9  10
ATOM     10  C   UNL     1      77.931 -10.289  27.883  0.00  0.00    +0.055 C 
ATOM     11  N   UNL     1      78.101  -9.120  28.406  0.00  0.00    -0.187 NA
BRANCH  11  12
ATOM     12  N   UNL     1      76.992  -8.543  28.963  0.00  0.00    -0.203 N 
ATOM     13  C   UNL     1      76.524  -7.335  28.468  0.00  0.00    +0.263 C 
ATOM     14  O   UNL     1      77.019  -6.721  27.522  0.00  0.00    -0.268 OA
ATOM     15  H   UNL     1      76.529  -8.985  29.712  0.00  0.00    +0.000 HD
BRANCH  13  16
ATOM     16  C   UNL     1      75.309  -6.785  29.131  0.00  0.00    +0.038 A 
ATOM     17  C   UNL     1      74.237  -7.597  29.529  0.00  0.00    -0.050 A 
ATOM     18  C   UNL     1      73.121  -7.027  30.152  0.00  0.00    -0.061 A 
ATOM     19  C   UNL     1      73.075  -5.653  30.386  0.00  0.00    -0.062 A 
ATOM     20  C   UNL     1      74.146  -4.843  30.009  0.00  0.00    -0.061 A 
ATOM     21  C   UNL     1      75.262  -5.408  29.389  0.00  0.00    -0.050 A 
ENDBRANCH  13  16
ENDBRANCH  11  12
ENDBRANCH   9  10
BRANCH   7  22
ATOM     22  C   UNL     1      82.321 -12.585  27.390  0.00  0.00    +0.048 C 
BRANCH  22  23
ATOM     23  C   UNL     1      83.366 -11.499  27.322  0.00  0.00    -0.028 A 
ATOM     24  C   UNL     1      83.846 -11.050  26.083  0.00  0.00    -0.055 A 
ATOM     25  C   UNL     1      84.903 -10.141  26.019  0.00  0.00    -0.043 A 
ATOM     26  C   UNL     1      85.478  -9.664  27.194  0.00  0.00    +0.041 A 
ATOM     27  C   UNL     1      84.972 -10.051  28.433  0.00  0.00    -0.043 A 
ATOM     28  C   UNL     1      83.918 -10.965  28.497  0.00  0.00    -0.055 A 
ATOM     29 CL   UNL     1      86.838  -8.614  27.113  0.00  0.00    -0.084 Cl
ENDBRANCH  22  23
ENDBRANCH   7  22
TORSDOF 5
ENDMDL
MODEL 3
REMARK VINA RESULT:    -9.724      4.134      9.289
REMARK INTER + INTRA:         -13.418
REMARK INTER:                 -12.483
REMARK INTRA:                  -0.935
REMARK UNBOUND:                -0.852
REMARK  Name = 18c.sdf
REMARK  5 active torsions:
REMARK  status: ('A' for Active; 'I' for Inactive)
REMARK    1  A    between atoms: N_7  and  C_12
REMARK    2  A    between atoms: C_9  and  C_10
REMARK    3  A    between atoms: N_11  and  N_19
REMARK    4  A    between atoms: C_12  and  C_13
REMARK    5  A    between atoms: C_20  and  C_22
REMARK                            x       y       z     vdW  Elec       q    Type
REMARK                         _______ _______ _______ _____ _____    ______ ____
ROOT
ATOM      1  C   UNL     1      81.699  -4.597  28.660  0.00  0.00    -0.061 A 
ATOM      2  C   UNL     1      80.998  -4.090  29.747  0.00  0.00    -0.060 A 
ATOM      3  C   UNL     1      80.139  -4.903  30.494  0.00  0.00    -0.038 A 
ATOM      4  C   UNL     1      80.004  -6.252  30.122  0.00  0.00    +0.050 A 
ATOM      5  C   UNL     1      80.739  -6.797  29.061  0.00  0.00    +0.009 A 
ATOM      6  C   UNL     1      81.586  -5.947  28.315  0.00  0.00    -0.052 A 
ATOM      7  N   UNL     1      79.205  -7.267  30.619  0.00  0.00    -0.342 N 
ATOM      8  C   UNL     1      79.484  -8.440  29.962  0.00  0.00    +0.015 A 
ATOM      9  C   UNL     1      80.434  -8.192  28.992  0.00  0.00    +0.020 A 
ENDROOT
BRANCH   9  10
ATOM     10  C   UNL     1      81.003  -9.168  28.087  0.00  0.00    +0.055 C 
ATOM     11  N   UNL     1      80.237 -10.034  27.511  0.00  0.00    -0.187 NA
BRANCH  11  12
ATOM     12  N   UNL     1      80.859 -10.930  26.683  0.00  0.00    -0.203 N 
ATOM     13  C   UNL     1      81.175 -12.195  27.156  0.00  0.00    +0.263 C 
ATOM     14  O   UNL     1      80.917 -12.612  28.285  0.00  0.00    -0.268 OA
ATOM     15  H   UNL     1      81.081 -10.677  25.758  0.00  0.00    +0.000 HD
BRANCH  13  16
ATOM     16  C   UNL     1      81.846 -13.105  26.185  0.00  0.00    +0.038 A 
ATOM     17  C   UNL     1      81.242 -13.498  24.982  0.00  0.00    -0.050 A 
ATOM     18  C   UNL     1      81.919 -14.351  24.105  0.00  0.00    -0.061 A 
ATOM     19  C   UNL     1      83.200 -14.808  24.421  0.00  0.00    -0.062 A 
ATOM     20  C   UNL     1      83.813 -14.406  25.607  0.00  0.00    -0.061 A 
ATOM     21  C   UNL     1      83.141 -13.552  26.484  0.00  0.00    -0.050 A 
ENDBRANCH  13  16
ENDBRANCH  11  12
ENDBRANCH   9  10
BRANCH   7  22
ATOM     22  C   UNL     1      78.133  -7.127  31.606  0.00  0.00    +0.048 C 
BRANCH  22  23
ATOM     23  C   UNL     1      76.809  -6.818  30.952  0.00  0.00    -0.028 A 
ATOM     24  C   UNL     1      75.919  -7.851  30.624  0.00  0.00    -0.055 A 
ATOM     25  C   UNL     1      74.755  -7.582  29.903  0.00  0.00    -0.043 A 
ATOM     26  C   UNL     1      74.464  -6.275  29.521  0.00  0.00    +0.041 A 
ATOM     27  C   UNL     1      75.304  -5.228  29.894  0.00  0.00    -0.043 A 
ATOM     28  C   UNL     1      76.473  -5.499  30.610  0.00  0.00    -0.055 A 
ATOM     29 CL   UNL     1      73.075  -5.957  28.557  0.00  0.00    -0.084 Cl
ENDBRANCH  22  23
ENDBRANCH   7  22
TORSDOF 5
ENDMDL
