MODEL 1
REMARK VINA RESULT:    -5.579      0.000      0.000
REMARK INTER + INTRA:          -5.952
REMARK INTER:                  -5.905
REMARK INTRA:                  -0.047
REMARK UNBOUND:                -0.047
REMARK  Name = 1.sdf
REMARK  1 active torsions:
REMARK  status: ('A' for Active; 'I' for Inactive)
REMARK    1  A    between atoms: C_9  and  C_10
REMARK                            x       y       z     vdW  Elec       q    Type
REMARK                         _______ _______ _______ _____ _____    ______ ____
ROOT
ATOM      1  C   UNL     1      73.276  -7.219  28.702  0.00  0.00    -0.061 A 
ATOM      2  C   UNL     1      73.447  -7.282  30.081  0.00  0.00    -0.060 A 
ATOM      3  C   UNL     1      74.679  -7.636  30.639  0.00  0.00    -0.038 A 
ATOM      4  C   UNL     1      75.729  -7.931  29.761  0.00  0.00    +0.047 A 
ATOM      5  C   UNL     1      75.591  -7.880  28.372  0.00  0.00    +0.010 A 
ATOM      6  C   UNL     1      74.337  -7.513  27.837  0.00  0.00    -0.052 A 
ATOM      7  N   UNL     1      77.025  -8.307  30.027  0.00  0.00    -0.360 N 
ATOM      8  C   UNL     1      77.709  -8.505  28.859  0.00  0.00    +0.013 A 
ATOM      9  C   UNL     1      76.853  -8.246  27.805  0.00  0.00    +0.039 A 
ATOM     10  H   UNL     1      77.406  -8.418  30.929  0.00  0.00    +0.000 HD
ENDROOT
BRANCH   9  11
ATOM     11  C   UNL     1      77.204  -8.344  26.401  0.00  0.00    +0.152 C 
ATOM     12  O   UNL     1      76.974  -9.328  25.703  0.00  0.00    -0.296 OA
ENDBRANCH   9  11
TORSDOF 1
ENDMDL
MODEL 2
REMARK VINA RESULT:    -5.573      3.122      3.577
REMARK INTER + INTRA:          -5.946
REMARK INTER:                  -5.907
REMARK INTRA:                  -0.039
REMARK UNBOUND:                -0.047
REMARK  Name = 1.sdf
REMARK  1 active torsions:
REMARK  status: ('A' for Active; 'I' for Inactive)
REMARK    1  A    between atoms: C_9  and  C_10
REMARK                            x       y       z     vdW  Elec       q    Type
REMARK                         _______ _______ _______ _____ _____    ______ ____
ROOT
ATOM      1  C   UNL     1      73.079  -5.473  30.132  0.00  0.00    -0.061 A 
ATOM      2  C   UNL     1      73.075  -6.864  30.185  0.00  0.00    -0.060 A 
ATOM      3  C   UNL     1      74.269  -7.585  30.265  0.00  0.00    -0.038 A 
ATOM      4  C   UNL     1      75.467  -6.860  30.285  0.00  0.00    +0.047 A 
ATOM      5  C   UNL     1      75.507  -5.464  30.232  0.00  0.00    +0.010 A 
ATOM      6  C   UNL     1      74.285  -4.762  30.157  0.00  0.00    -0.052 A 
ATOM      7  N   UNL     1      76.767  -7.302  30.354  0.00  0.00    -0.360 N 
ATOM      8  C   UNL     1      77.629  -6.240  30.336  0.00  0.00    +0.013 A 
ATOM      9  C   UNL     1      76.885  -5.077  30.264  0.00  0.00    +0.039 A 
ATOM     10  H   UNL     1      77.039  -8.248  30.407  0.00  0.00    +0.000 HD
ENDROOT
BRANCH   9  11
ATOM     11  C   UNL     1      77.434  -3.735  30.225  0.00  0.00    +0.152 C 
ATOM     12  O   UNL     1      77.810  -3.177  29.198  0.00  0.00    -0.296 OA
ENDBRANCH   9  11
TORSDOF 1
ENDMDL
MODEL 3
REMARK VINA RESULT:    -5.493      2.342      2.740
REMARK INTER + INTRA:          -5.861
REMARK INTER:                  -5.811
REMARK INTRA:                  -0.051
REMARK UNBOUND:                -0.047
REMARK  Name = 1.sdf
REMARK  1 active torsions:
REMARK  status: ('A' for Active; 'I' for Inactive)
REMARK    1  A    between atoms: C_9  and  C_10
REMARK                            x       y       z     vdW  Elec       q    Type
REMARK                         _______ _______ _______ _____ _____    ______ ____
ROOT
ATOM      1  C   UNL     1      73.075  -6.860  30.248  0.00  0.00    -0.061 A 
ATOM      2  C   UNL     1      73.077  -5.469  30.222  0.00  0.00    -0.060 A 
ATOM      3  C   UNL     1      74.274  -4.751  30.174  0.00  0.00    -0.038 A 
ATOM      4  C   UNL     1      75.470  -5.479  30.157  0.00  0.00    +0.047 A 
ATOM      5  C   UNL     1      75.504  -6.876  30.185  0.00  0.00    +0.010 A 
ATOM      6  C   UNL     1      74.279  -7.575  30.227  0.00  0.00    -0.052 A 
ATOM      7  N   UNL     1      76.772  -5.041  30.117  0.00  0.00    -0.360 N 
ATOM      8  C   UNL     1      77.630  -6.107  30.127  0.00  0.00    +0.013 A 
ATOM      9  C   UNL     1      76.881  -7.268  30.165  0.00  0.00    +0.039 A 
ATOM     10  H   UNL     1      77.049  -4.096  30.086  0.00  0.00    +0.000 HD
ENDROOT
BRANCH   9  11
ATOM     11  C   UNL     1      77.425  -8.612  30.187  0.00  0.00    +0.152 C 
ATOM     12  O   UNL     1      77.438  -9.363  29.215  0.00  0.00    -0.296 OA
ENDBRANCH   9  11
TORSDOF 1
ENDMDL
