MODEL 1
REMARK VINA RESULT:    -8.780      0.000      0.000
REMARK INTER + INTRA:         -10.847
REMARK INTER:                 -10.319
REMARK INTRA:                  -0.527
REMARK UNBOUND:                -0.527
REMARK  Name = 1a.sdf
REMARK  3 active torsions:
REMARK  status: ('A' for Active; 'I' for Inactive)
REMARK    1  A    between atoms: N_7  and  C_12
REMARK    2  A    between atoms: C_9  and  C_10
REMARK    3  A    between atoms: C_12  and  C_13
REMARK                            x       y       z     vdW  Elec       q    Type
REMARK                         _______ _______ _______ _____ _____    ______ ____
ROOT
ATOM      1  C   UNL     1      73.108  -7.226  29.869  0.00  0.00    -0.061 A 
ATOM      2  C   UNL     1      73.077  -7.188  28.480  0.00  0.00    -0.060 A 
ATOM      3  C   UNL     1      74.260  -7.195  27.734  0.00  0.00    -0.038 A 
ATOM      4  C   UNL     1      75.484  -7.251  28.424  0.00  0.00    +0.050 A 
ATOM      5  C   UNL     1      75.537  -7.334  29.821  0.00  0.00    +0.010 A 
ATOM      6  C   UNL     1      74.326  -7.307  30.549  0.00  0.00    -0.052 A 
ATOM      7  N   UNL     1      76.791  -7.228  27.970  0.00  0.00    -0.342 N 
ATOM      8  C   UNL     1      77.652  -7.366  29.031  0.00  0.00    +0.016 A 
ATOM      9  C   UNL     1      76.913  -7.431  30.194  0.00  0.00    +0.039 A 
ENDROOT
BRANCH   9  10
ATOM     10  C   UNL     1      77.466  -7.570  31.528  0.00  0.00    +0.152 C 
ATOM     11  O   UNL     1      77.806  -6.625  32.234  0.00  0.00    -0.296 OA
ENDBRANCH   9  10
BRANCH   7  12
ATOM     12  C   UNL     1      77.229  -6.976  26.599  0.00  0.00    +0.048 C 
BRANCH  12  13
ATOM     13  C   UNL     1      77.619  -8.249  25.892  0.00  0.00    -0.028 A 
ATOM     14  C   UNL     1      78.667  -8.253  24.959  0.00  0.00    -0.056 A 
ATOM     15  C   UNL     1      78.962  -9.405  24.227  0.00  0.00    -0.047 A 
ATOM     16  C   UNL     1      78.217 -10.563  24.434  0.00  0.00    +0.018 A 
ATOM     17  C   UNL     1      77.207 -10.593  25.391  0.00  0.00    -0.047 A 
ATOM     18  C   UNL     1      76.911  -9.439  26.121  0.00  0.00    -0.056 A 
ATOM     19 BR   UNL     1      78.561 -12.096  23.381  0.00  0.00    -0.050 Br
ENDBRANCH  12  13
ENDBRANCH   7  12
TORSDOF 3
ENDMDL
MODEL 2
REMARK VINA RESULT:    -8.146      1.874      2.133
REMARK INTER + INTRA:         -10.102
REMARK INTER:                  -9.742
REMARK INTRA:                  -0.360
REMARK UNBOUND:                -0.527
REMARK  Name = 1a.sdf
REMARK  3 active torsions:
REMARK  status: ('A' for Active; 'I' for Inactive)
REMARK    1  A    between atoms: N_7  and  C_12
REMARK    2  A    between atoms: C_9  and  C_10
REMARK    3  A    between atoms: C_12  and  C_13
REMARK                            x       y       z     vdW  Elec       q    Type
REMARK                         _______ _______ _______ _____ _____    ______ ____
ROOT
ATOM      1  C   UNL     1      74.924  -3.583  30.534  0.00  0.00    -0.061 A 
ATOM      2  C   UNL     1      73.991  -4.105  29.645  0.00  0.00    -0.060 A 
ATOM      3  C   UNL     1      74.200  -5.344  29.029  0.00  0.00    -0.038 A 
ATOM      4  C   UNL     1      75.372  -6.054  29.337  0.00  0.00    +0.050 A 
ATOM      5  C   UNL     1      76.305  -5.567  30.261  0.00  0.00    +0.010 A 
ATOM      6  C   UNL     1      76.077  -4.305  30.855  0.00  0.00    -0.052 A 
ATOM      7  N   UNL     1      75.865  -7.257  28.862  0.00  0.00    -0.342 N 
ATOM      8  C   UNL     1      77.034  -7.568  29.512  0.00  0.00    +0.016 A 
ATOM      9  C   UNL     1      77.340  -6.544  30.384  0.00  0.00    +0.039 A 
ENDROOT
BRANCH   9  10
ATOM     10  C   UNL     1      78.506  -6.502  31.246  0.00  0.00    +0.152 C 
ATOM     11  O   UNL     1      79.295  -5.563  31.292  0.00  0.00    -0.296 OA
ENDBRANCH   9  10
BRANCH   7  12
ATOM     12  C   UNL     1      75.318  -8.042  27.757  0.00  0.00    +0.048 C 
BRANCH  12  13
ATOM     13  C   UNL     1      76.398  -8.504  26.811  0.00  0.00    -0.028 A 
ATOM     14  C   UNL     1      77.273  -7.577  26.224  0.00  0.00    -0.056 A 
ATOM     15  C   UNL     1      78.205  -7.987  25.269  0.00  0.00    -0.047 A 
ATOM     16  C   UNL     1      78.276  -9.330  24.906  0.00  0.00    +0.018 A 
ATOM     17  C   UNL     1      77.451 -10.272  25.515  0.00  0.00    -0.047 A 
ATOM     18  C   UNL     1      76.516  -9.859  26.468  0.00  0.00    -0.056 A 
ATOM     19 BR   UNL     1      79.479  -9.870  23.550  0.00  0.00    -0.050 Br
ENDBRANCH  12  13
ENDBRANCH   7  12
TORSDOF 3
ENDMDL
MODEL 3
REMARK VINA RESULT:    -8.105      1.969      2.559
REMARK INTER + INTRA:         -10.054
REMARK INTER:                  -9.566
REMARK INTRA:                  -0.488
REMARK UNBOUND:                -0.527
REMARK  Name = 1a.sdf
REMARK  3 active torsions:
REMARK  status: ('A' for Active; 'I' for Inactive)
REMARK    1  A    between atoms: N_7  and  C_12
REMARK    2  A    between atoms: C_9  and  C_10
REMARK    3  A    between atoms: C_12  and  C_13
REMARK                            x       y       z     vdW  Elec       q    Type
REMARK                         _______ _______ _______ _____ _____    ______ ____
ROOT
ATOM      1  C   UNL     1      73.147  -5.409  30.033  0.00  0.00    -0.061 A 
ATOM      2  C   UNL     1      73.075  -6.782  30.238  0.00  0.00    -0.060 A 
ATOM      3  C   UNL     1      74.232  -7.569  30.246  0.00  0.00    -0.038 A 
ATOM      4  C   UNL     1      75.471  -6.937  30.049  0.00  0.00    +0.050 A 
ATOM      5  C   UNL     1      75.570  -5.549  29.884  0.00  0.00    +0.010 A 
ATOM      6  C   UNL     1      74.384  -4.782  29.863  0.00  0.00    -0.052 A 
ATOM      7  N   UNL     1      76.755  -7.446  29.964  0.00  0.00    -0.342 N 
ATOM      8  C   UNL     1      77.654  -6.418  29.822  0.00  0.00    +0.016 A 
ATOM      9  C   UNL     1      76.958  -5.228  29.766  0.00  0.00    +0.039 A 
ENDROOT
BRANCH   9  10
ATOM     10  C   UNL     1      77.557  -3.917  29.612  0.00  0.00    +0.152 C 
ATOM     11  O   UNL     1      78.298  -3.396  30.442  0.00  0.00    -0.296 OA
ENDBRANCH   9  10
BRANCH   7  12
ATOM     12  C   UNL     1      77.125  -8.859  29.905  0.00  0.00    +0.048 C 
BRANCH  12  13
ATOM     13  C   UNL     1      77.401  -9.307  28.492  0.00  0.00    -0.028 A 
ATOM     14  C   UNL     1      76.649  -8.795  27.424  0.00  0.00    -0.056 A 
ATOM     15  C   UNL     1      76.831  -9.285  26.129  0.00  0.00    -0.047 A 
ATOM     16  C   UNL     1      77.776 -10.280  25.893  0.00  0.00    +0.018 A 
ATOM     17  C   UNL     1      78.567 -10.764  26.932  0.00  0.00    -0.047 A 
ATOM     18  C   UNL     1      78.381 -10.276  28.228  0.00  0.00    -0.056 A 
ATOM     19 BR   UNL     1      77.960 -11.002  24.156  0.00  0.00    -0.050 Br
ENDBRANCH  12  13
ENDBRANCH   7  12
TORSDOF 3
ENDMDL
