MODEL 1
REMARK VINA RESULT:    -8.453      0.000      0.000
REMARK INTER + INTRA:         -12.042
REMARK INTER:                 -10.924
REMARK INTRA:                  -1.118
REMARK UNBOUND:                -1.118
REMARK  Name = 21.sdf
REMARK  5 active torsions:
REMARK  status: ('A' for Active; 'I' for Inactive)
REMARK    1  A    between atoms: C_9  and  C_10
REMARK    2  A    between atoms: C_10  and  O_11
REMARK    3  A    between atoms: O_11  and  C_12
REMARK    4  A    between atoms: C_12  and  C_13
REMARK    5  A    between atoms: C_13  and  C_14
REMARK                            x       y       z     vdW  Elec       q    Type
REMARK                         _______ _______ _______ _____ _____    ______ ____
ROOT
ATOM      1  C   UNL     1      80.616 -12.750  25.309  0.00  0.00    +0.075 C 
ENDROOT
BRANCH   1  10
ATOM      2  C   UNL     1      79.057 -10.879  29.359  0.00  0.00    -0.061 A 
ATOM      3  C   UNL     1      79.884 -11.178  30.439  0.00  0.00    -0.060 A 
ATOM      4  C   UNL     1      80.985 -12.025  30.281  0.00  0.00    -0.038 A 
ATOM      5  C   UNL     1      81.249 -12.526  29.000  0.00  0.00    +0.047 A 
ATOM      6  C   UNL     1      80.462 -12.221  27.888  0.00  0.00    +0.005 A 
ATOM      7  C   UNL     1      79.326 -11.408  28.088  0.00  0.00    -0.052 A 
ATOM      8  N   UNL     1      82.245 -13.367  28.563  0.00  0.00    -0.360 N 
ATOM      9  C   UNL     1      82.140 -13.568  27.215  0.00  0.00    +0.008 A 
ATOM     10  C   UNL     1      81.059 -12.847  26.741  0.00  0.00    +0.003 A 
ATOM     11  H   UNL     1      82.935 -13.768  29.139  0.00  0.00    +0.000 HD
ENDBRANCH   1  10
BRANCH   1  12
ATOM     12  O   UNL     1      80.854 -11.435  24.789  0.00  0.00    -0.367 OA
BRANCH  12  13
ATOM     13  C   UNL     1      80.146 -11.177  23.587  0.00  0.00    +0.111 C 
BRANCH  13  14
ATOM     14  C   UNL     1      78.634 -11.119  23.801  0.00  0.00    +0.189 C 
ATOM     15  O   UNL     1      77.876 -11.911  23.229  0.00  0.00    -0.290 OA
BRANCH  14  16
ATOM     16  C   UNL     1      78.061 -10.160  24.791  0.00  0.00    +0.020 A 
ATOM     17  C   UNL     1      77.025 -10.515  25.662  0.00  0.00    -0.050 A 
ATOM     18  C   UNL     1      76.464  -9.561  26.516  0.00  0.00    -0.047 A 
ATOM     19  C   UNL     1      76.938  -8.250  26.501  0.00  0.00    +0.018 A 
ATOM     20  C   UNL     1      77.986  -7.887  25.657  0.00  0.00    -0.047 A 
ATOM     21  C   UNL     1      78.545  -8.841  24.804  0.00  0.00    -0.050 A 
ATOM     22 BR   UNL     1      76.122  -6.946  27.598  0.00  0.00    -0.050 Br
ENDBRANCH  14  16
ENDBRANCH  13  14
ENDBRANCH  12  13
ENDBRANCH   1  12
TORSDOF 5
ENDMDL
MODEL 2
REMARK VINA RESULT:    -8.241      1.665      1.989
REMARK INTER + INTRA:         -11.769
REMARK INTER:                  -9.464
REMARK INTRA:                  -2.304
REMARK UNBOUND:                -1.118
REMARK  Name = 21.sdf
REMARK  5 active torsions:
REMARK  status: ('A' for Active; 'I' for Inactive)
REMARK    1  A    between atoms: C_9  and  C_10
REMARK    2  A    between atoms: C_10  and  O_11
REMARK    3  A    between atoms: O_11  and  C_12
REMARK    4  A    between atoms: C_12  and  C_13
REMARK    5  A    between atoms: C_13  and  C_14
REMARK                            x       y       z     vdW  Elec       q    Type
REMARK                         _______ _______ _______ _____ _____    ______ ____
ROOT
ATOM      1  C   UNL     1      81.547 -11.952  25.475  0.00  0.00    +0.075 C 
ENDROOT
BRANCH   1  10
ATOM      2  C   UNL     1      78.615 -11.226  29.108  0.00  0.00    -0.061 A 
ATOM      3  C   UNL     1      78.624  -9.905  29.547  0.00  0.00    -0.060 A 
ATOM      4  C   UNL     1      79.502  -8.973  28.985  0.00  0.00    -0.038 A 
ATOM      5  C   UNL     1      80.337  -9.402  27.947  0.00  0.00    +0.047 A 
ATOM      6  C   UNL     1      80.332 -10.710  27.460  0.00  0.00    +0.005 A 
ATOM      7  C   UNL     1      79.475 -11.642  28.081  0.00  0.00    -0.052 A 
ATOM      8  N   UNL     1      81.284  -8.713  27.227  0.00  0.00    -0.360 N 
ATOM      9  C   UNL     1      81.843  -9.524  26.278  0.00  0.00    +0.008 A 
ATOM     10  C   UNL     1      81.258 -10.776  26.362  0.00  0.00    +0.003 A 
ATOM     11  H   UNL     1      81.526  -7.771  27.372  0.00  0.00    +0.000 HD
ENDBRANCH   1  10
BRANCH   1  12
ATOM     12  O   UNL     1      80.331 -12.521  24.970  0.00  0.00    -0.367 OA
BRANCH  12  13
ATOM     13  C   UNL     1      79.924 -11.955  23.735  0.00  0.00    +0.111 C 
BRANCH  13  14
ATOM     14  C   UNL     1      78.464 -11.505  23.751  0.00  0.00    +0.189 C 
ATOM     15  O   UNL     1      77.605 -12.094  23.083  0.00  0.00    -0.290 OA
BRANCH  14  16
ATOM     16  C   UNL     1      78.037 -10.400  24.660  0.00  0.00    +0.020 A 
ATOM     17  C   UNL     1      77.044 -10.572  25.630  0.00  0.00    -0.050 A 
ATOM     18  C   UNL     1      76.619  -9.488  26.403  0.00  0.00    -0.047 A 
ATOM     19  C   UNL     1      77.187  -8.230  26.209  0.00  0.00    +0.018 A 
ATOM     20  C   UNL     1      78.196  -8.048  25.264  0.00  0.00    -0.047 A 
ATOM     21  C   UNL     1      78.618  -9.132  24.491  0.00  0.00    -0.050 A 
ATOM     22 BR   UNL     1      76.554  -6.751  27.199  0.00  0.00    -0.050 Br
ENDBRANCH  14  16
ENDBRANCH  13  14
ENDBRANCH  12  13
ENDBRANCH   1  12
TORSDOF 5
ENDMDL
MODEL 3
REMARK VINA RESULT:    -8.176      4.756      6.764
REMARK INTER + INTRA:         -11.684
REMARK INTER:                  -9.412
REMARK INTRA:                  -2.272
REMARK UNBOUND:                -1.118
REMARK  Name = 21.sdf
REMARK  5 active torsions:
REMARK  status: ('A' for Active; 'I' for Inactive)
REMARK    1  A    between atoms: C_9  and  C_10
REMARK    2  A    between atoms: C_10  and  O_11
REMARK    3  A    between atoms: O_11  and  C_12
REMARK    4  A    between atoms: C_12  and  C_13
REMARK    5  A    between atoms: C_13  and  C_14
REMARK                            x       y       z     vdW  Elec       q    Type
REMARK                         _______ _______ _______ _____ _____    ______ ____
ROOT
ATOM      1  C   UNL     1      78.761  -9.284  29.598  0.00  0.00    +0.075 C 
ENDROOT
BRANCH   1  10
ATOM      2  C   UNL     1      74.430  -7.640  30.530  0.00  0.00    -0.061 A 
ATOM      3  C   UNL     1      73.702  -7.366  29.375  0.00  0.00    -0.060 A 
ATOM      4  C   UNL     1      74.290  -7.500  28.113  0.00  0.00    -0.038 A 
ATOM      5  C   UNL     1      75.613  -7.953  28.051  0.00  0.00    +0.047 A 
ATOM      6  C   UNL     1      76.363  -8.267  29.186  0.00  0.00    +0.005 A 
ATOM      7  C   UNL     1      75.762  -8.071  30.447  0.00  0.00    -0.052 A 
ATOM      8  N   UNL     1      76.428  -8.169  26.964  0.00  0.00    -0.360 N 
ATOM      9  C   UNL     1      77.643  -8.647  27.368  0.00  0.00    +0.008 A 
ATOM     10  C   UNL     1      77.641  -8.756  28.748  0.00  0.00    +0.003 A 
ATOM     11  H   UNL     1      76.173  -8.004  26.028  0.00  0.00    +0.000 HD
ENDBRANCH   1  10
BRANCH   1  12
ATOM     12  O   UNL     1      79.399  -8.220  30.318  0.00  0.00    -0.367 OA
BRANCH  12  13
ATOM     13  C   UNL     1      80.273  -7.449  29.510  0.00  0.00    +0.111 C 
BRANCH  13  14
ATOM     14  C   UNL     1      80.131  -5.949  29.761  0.00  0.00    +0.189 C 
ATOM     15  O   UNL     1      81.119  -5.205  29.775  0.00  0.00    -0.290 OA
BRANCH  14  16
ATOM     16  C   UNL     1      78.772  -5.344  29.895  0.00  0.00    +0.020 A 
ATOM     17  C   UNL     1      78.176  -5.113  31.139  0.00  0.00    -0.050 A 
ATOM     18  C   UNL     1      76.870  -4.620  31.214  0.00  0.00    -0.047 A 
ATOM     19  C   UNL     1      76.158  -4.358  30.045  0.00  0.00    +0.018 A 
ATOM     20  C   UNL     1      76.747  -4.558  28.798  0.00  0.00    -0.047 A 
ATOM     21  C   UNL     1      78.052  -5.052  28.725  0.00  0.00    -0.050 A 
ATOM     22 BR   UNL     1      74.365  -3.769  30.150  0.00  0.00    -0.050 Br
ENDBRANCH  14  16
ENDBRANCH  13  14
ENDBRANCH  12  13
ENDBRANCH   1  12
TORSDOF 5
ENDMDL
