MODEL 1
REMARK VINA RESULT:    -9.877      0.000      0.000
REMARK INTER + INTRA:         -13.940
REMARK INTER:                 -13.053
REMARK INTRA:                  -0.887
REMARK UNBOUND:                -0.887
REMARK  Name = 24a.sdf
REMARK  6 active torsions:
REMARK  status: ('A' for Active; 'I' for Inactive)
REMARK    1  A    between atoms: N_7  and  C_10
REMARK    2  A    between atoms: C_9  and  C_18
REMARK    3  A    between atoms: C_10  and  C_11
REMARK    4  A    between atoms: N_19  and  N_20
REMARK    5  A    between atoms: C_21  and  C_23
REMARK    6  A    between atoms: C_26  and  O_29
REMARK                            x       y       z     vdW  Elec       q    Type
REMARK                         _______ _______ _______ _____ _____    ______ ____
ROOT
ATOM      1  C   UNL     1      81.281 -13.787  24.660  0.00  0.00    -0.061 A 
ATOM      2  C   UNL     1      82.621 -13.839  24.309  0.00  0.00    -0.060 A 
ATOM      3  C   UNL     1      83.522 -12.846  24.730  0.00  0.00    -0.038 A 
ATOM      4  C   UNL     1      83.025 -11.761  25.490  0.00  0.00    +0.050 A 
ATOM      5  C   UNL     1      81.685 -11.731  25.903  0.00  0.00    +0.009 A 
ATOM      6  C   UNL     1      80.810 -12.759  25.478  0.00  0.00    -0.052 A 
ATOM      7  N   UNL     1      83.622 -10.598  25.947  0.00  0.00    -0.342 N 
ATOM      8  C   UNL     1      82.716  -9.902  26.719  0.00  0.00    +0.015 A 
ATOM      9  C   UNL     1      81.515 -10.583  26.738  0.00  0.00    +0.020 A 
ENDROOT
BRANCH   9  10
ATOM     10  C   UNL     1      80.322 -10.194  27.467  0.00  0.00    +0.055 C 
ATOM     11  N   UNL     1      80.066  -8.943  27.676  0.00  0.00    -0.187 NA
BRANCH  11  12
ATOM     12  N   UNL     1      78.932  -8.673  28.394  0.00  0.00    -0.203 N 
ATOM     13  C   UNL     1      77.752  -8.367  27.726  0.00  0.00    +0.263 C 
ATOM     14  O   UNL     1      77.630  -8.325  26.501  0.00  0.00    -0.268 OA
ATOM     15  H   UNL     1      78.954  -8.696  29.378  0.00  0.00    +0.000 HD
BRANCH  13  16
ATOM     16  C   UNL     1      76.554  -8.112  28.574  0.00  0.00    +0.039 A 
ATOM     17  C   UNL     1      76.591  -8.186  29.973  0.00  0.00    -0.046 A 
ATOM     18  C   UNL     1      75.429  -7.964  30.722  0.00  0.00    -0.019 A 
ATOM     19  C   UNL     1      74.238  -7.657  30.068  0.00  0.00    +0.117 A 
ATOM     20  C   UNL     1      74.193  -7.538  28.685  0.00  0.00    -0.019 A 
ATOM     21  C   UNL     1      75.352  -7.763  27.938  0.00  0.00    -0.046 A 
BRANCH  19  22
ATOM     22  O   UNL     1      73.079  -7.462  30.758  0.00  0.00    -0.507 OA
ATOM     23  H   UNL     1      73.030  -6.793  31.413  0.00  0.00    +0.000 HD
ENDBRANCH  19  22
ENDBRANCH  13  16
ENDBRANCH  11  12
ENDBRANCH   9  10
BRANCH   7  24
ATOM     24  C   UNL     1      84.940 -10.060  25.591  0.00  0.00    +0.048 C 
BRANCH  24  25
ATOM     25  C   UNL     1      85.924 -10.123  26.736  0.00  0.00    -0.028 A 
ATOM     26  C   UNL     1      86.090 -11.310  27.464  0.00  0.00    -0.056 A 
ATOM     27  C   UNL     1      86.824 -11.316  28.652  0.00  0.00    -0.047 A 
ATOM     28  C   UNL     1      87.432 -10.144  29.096  0.00  0.00    +0.018 A 
ATOM     29  C   UNL     1      87.382  -8.988  28.321  0.00  0.00    -0.047 A 
ATOM     30  C   UNL     1      86.633  -8.979  27.141  0.00  0.00    -0.056 A 
ATOM     31 BR   UNL     1      88.249 -10.101  30.799  0.00  0.00    -0.050 Br
ENDBRANCH  24  25
ENDBRANCH   7  24
TORSDOF 6
ENDMDL
MODEL 2
REMARK VINA RESULT:    -9.801      4.479      9.684
REMARK INTER + INTRA:         -13.840
REMARK INTER:                 -12.836
REMARK INTRA:                  -1.003
REMARK UNBOUND:                -0.887
REMARK  Name = 24a.sdf
REMARK  6 active torsions:
REMARK  status: ('A' for Active; 'I' for Inactive)
REMARK    1  A    between atoms: N_7  and  C_10
REMARK    2  A    between atoms: C_9  and  C_18
REMARK    3  A    between atoms: C_10  and  C_11
REMARK    4  A    between atoms: N_19  and  N_20
REMARK    5  A    between atoms: C_21  and  C_23
REMARK    6  A    between atoms: C_26  and  O_29
REMARK                            x       y       z     vdW  Elec       q    Type
REMARK                         _______ _______ _______ _____ _____    ______ ____
ROOT
ATOM      1  C   UNL     1      81.667  -4.560  28.492  0.00  0.00    -0.061 A 
ATOM      2  C   UNL     1      80.945  -3.936  29.498  0.00  0.00    -0.060 A 
ATOM      3  C   UNL     1      80.138  -4.674  30.380  0.00  0.00    -0.038 A 
ATOM      4  C   UNL     1      80.042  -6.074  30.195  0.00  0.00    +0.050 A 
ATOM      5  C   UNL     1      80.816  -6.723  29.223  0.00  0.00    +0.009 A 
ATOM      6  C   UNL     1      81.635  -5.949  28.365  0.00  0.00    -0.052 A 
ATOM      7  N   UNL     1      79.264  -7.039  30.812  0.00  0.00    -0.342 N 
ATOM      8  C   UNL     1      79.612  -8.278  30.319  0.00  0.00    +0.015 A 
ATOM      9  C   UNL     1      80.587  -8.128  29.353  0.00  0.00    +0.020 A 
ENDROOT
BRANCH   9  10
ATOM     10  C   UNL     1      81.240  -9.198  28.622  0.00  0.00    +0.055 C 
ATOM     11  N   UNL     1      80.783 -10.406  28.690  0.00  0.00    -0.187 NA
BRANCH  11  12
ATOM     12  N   UNL     1      81.478 -11.353  27.988  0.00  0.00    -0.203 N 
ATOM     13  C   UNL     1      80.957 -11.846  26.797  0.00  0.00    +0.263 C 
ATOM     14  O   UNL     1      79.890 -11.487  26.296  0.00  0.00    -0.268 OA
ATOM     15  H   UNL     1      82.343 -11.682  28.324  0.00  0.00    +0.000 HD
BRANCH  13  16
ATOM     16  C   UNL     1      81.783 -12.854  26.074  0.00  0.00    +0.039 A 
ATOM     17  C   UNL     1      83.059 -13.236  26.512  0.00  0.00    -0.046 A 
ATOM     18  C   UNL     1      83.805 -14.167  25.781  0.00  0.00    -0.019 A 
ATOM     19  C   UNL     1      83.268 -14.721  24.621  0.00  0.00    +0.117 A 
ATOM     20  C   UNL     1      81.988 -14.386  24.197  0.00  0.00    -0.019 A 
ATOM     21  C   UNL     1      81.245 -13.454  24.925  0.00  0.00    -0.046 A 
BRANCH  19  22
ATOM     22  O   UNL     1      83.972 -15.609  23.865  0.00  0.00    -0.507 OA
ATOM     23  H   UNL     1      84.130 -15.431  22.958  0.00  0.00    +0.000 HD
ENDBRANCH  19  22
ENDBRANCH  13  16
ENDBRANCH  11  12
ENDBRANCH   9  10
BRANCH   7  24
ATOM     24  C   UNL     1      78.139  -6.839  31.733  0.00  0.00    +0.048 C 
BRANCH  24  25
ATOM     25  C   UNL     1      76.822  -6.658  31.014  0.00  0.00    -0.028 A 
ATOM     26  C   UNL     1      76.029  -7.770  30.696  0.00  0.00    -0.056 A 
ATOM     27  C   UNL     1      74.931  -7.638  29.844  0.00  0.00    -0.047 A 
ATOM     28  C   UNL     1      74.594  -6.384  29.340  0.00  0.00    +0.018 A 
ATOM     29  C   UNL     1      75.293  -5.250  29.746  0.00  0.00    -0.047 A 
ATOM     30  C   UNL     1      76.403  -5.387  30.584  0.00  0.00    -0.056 A 
ATOM     31 BR   UNL     1      73.239  -6.235  28.031  0.00  0.00    -0.050 Br
ENDBRANCH  24  25
ENDBRANCH   7  24
TORSDOF 6
ENDMDL
MODEL 3
REMARK VINA RESULT:    -9.653      1.626      2.059
REMARK INTER + INTRA:         -13.644
REMARK INTER:                 -12.980
REMARK INTRA:                  -0.664
REMARK UNBOUND:                -0.887
REMARK  Name = 24a.sdf
REMARK  6 active torsions:
REMARK  status: ('A' for Active; 'I' for Inactive)
REMARK    1  A    between atoms: N_7  and  C_10
REMARK    2  A    between atoms: C_9  and  C_18
REMARK    3  A    between atoms: C_10  and  C_11
REMARK    4  A    between atoms: N_19  and  N_20
REMARK    5  A    between atoms: C_21  and  C_23
REMARK    6  A    between atoms: C_26  and  O_29
REMARK                            x       y       z     vdW  Elec       q    Type
REMARK                         _______ _______ _______ _____ _____    ______ ____
ROOT
ATOM      1  C   UNL     1      79.698 -11.947  23.386  0.00  0.00    -0.061 A 
ATOM      2  C   UNL     1      80.738 -12.860  23.294  0.00  0.00    -0.060 A 
ATOM      3  C   UNL     1      81.653 -13.029  24.347  0.00  0.00    -0.038 A 
ATOM      4  C   UNL     1      81.518 -12.214  25.496  0.00  0.00    +0.050 A 
ATOM      5  C   UNL     1      80.434 -11.333  25.626  0.00  0.00    +0.009 A 
ATOM      6  C   UNL     1      79.519 -11.204  24.554  0.00  0.00    -0.052 A 
ATOM      7  N   UNL     1      82.305 -12.066  26.625  0.00  0.00    -0.342 N 
ATOM      8  C   UNL     1      81.683 -11.196  27.495  0.00  0.00    +0.015 A 
ATOM      9  C   UNL     1      80.510 -10.741  26.925  0.00  0.00    +0.020 A 
ENDROOT
BRANCH   9  10
ATOM     10  C   UNL     1      79.555  -9.838  27.538  0.00  0.00    +0.055 C 
ATOM     11  N   UNL     1      78.377 -10.262  27.866  0.00  0.00    -0.187 NA
BRANCH  11  12
ATOM     12  N   UNL     1      77.535  -9.332  28.415  0.00  0.00    -0.203 N 
ATOM     13  C   UNL     1      76.542  -8.756  27.632  0.00  0.00    +0.263 C 
ATOM     14  O   UNL     1      76.340  -9.024  26.447  0.00  0.00    -0.268 OA
ATOM     15  H   UNL     1      77.632  -9.075  29.361  0.00  0.00    +0.000 HD
BRANCH  13  16
ATOM     16  C   UNL     1      75.647  -7.774  28.306  0.00  0.00    +0.039 A 
ATOM     17  C   UNL     1      75.185  -7.952  29.618  0.00  0.00    -0.046 A 
ATOM     18  C   UNL     1      74.323  -7.013  30.195  0.00  0.00    -0.019 A 
ATOM     19  C   UNL     1      73.935  -5.894  29.463  0.00  0.00    +0.117 A 
ATOM     20  C   UNL     1      74.418  -5.680  28.178  0.00  0.00    -0.019 A 
ATOM     21  C   UNL     1      75.275  -6.619  27.600  0.00  0.00    -0.046 A 
BRANCH  19  22
ATOM     22  O   UNL     1      73.075  -4.970  29.977  0.00  0.00    -0.507 OA
ATOM     23  H   UNL     1      72.181  -4.955  29.695  0.00  0.00    +0.000 HD
ENDBRANCH  19  22
ENDBRANCH  13  16
ENDBRANCH  11  12
ENDBRANCH   9  10
BRANCH   7  24
ATOM     24  C   UNL     1      83.653 -12.597  26.862  0.00  0.00    +0.048 C 
BRANCH  24  25
ATOM     25  C   UNL     1      84.724 -11.536  26.752  0.00  0.00    -0.028 A 
ATOM     26  C   UNL     1      85.965 -11.713  27.382  0.00  0.00    -0.056 A 
ATOM     27  C   UNL     1      86.871 -10.655  27.473  0.00  0.00    -0.047 A 
ATOM     28  C   UNL     1      86.559  -9.426  26.896  0.00  0.00    +0.018 A 
ATOM     29  C   UNL     1      85.388  -9.271  26.158  0.00  0.00    -0.047 A 
ATOM     30  C   UNL     1      84.474 -10.326  26.083  0.00  0.00    -0.056 A 
ATOM     31 BR   UNL     1      87.688  -7.940  27.193  0.00  0.00    -0.050 Br
ENDBRANCH  24  25
ENDBRANCH   7  24
TORSDOF 6
ENDMDL
