MODEL 1
REMARK VINA RESULT:    -5.441      0.000      0.000
REMARK INTER + INTRA:          -5.946
REMARK INTER:                  -5.918
REMARK INTRA:                  -0.029
REMARK UNBOUND:                -0.029
REMARK  Name = 4.sdf
REMARK  2 active torsions:
REMARK  status: ('A' for Active; 'I' for Inactive)
REMARK    1  A    between atoms: C_9  and  C_10
REMARK    2  A    between atoms: C_10  and  O_11
REMARK                            x       y       z     vdW  Elec       q    Type
REMARK                         _______ _______ _______ _____ _____    ______ ____
ROOT
ATOM      1  C   UNL     1      80.190 -12.273  23.101  0.00  0.00    -0.061 A 
ATOM      2  C   UNL     1      79.493 -11.612  24.108  0.00  0.00    -0.060 A 
ATOM      3  C   UNL     1      79.876 -11.737  25.446  0.00  0.00    -0.038 A 
ATOM      4  C   UNL     1      80.977 -12.553  25.736  0.00  0.00    +0.047 A 
ATOM      5  C   UNL     1      81.691 -13.240  24.751  0.00  0.00    +0.005 A 
ATOM      6  C   UNL     1      81.289 -13.087  23.407  0.00  0.00    -0.052 A 
ATOM      7  N   UNL     1      81.559 -12.852  26.945  0.00  0.00    -0.360 N 
ATOM      8  C   UNL     1      82.604 -13.713  26.762  0.00  0.00    +0.008 A 
ATOM      9  C   UNL     1      82.720 -13.990  25.413  0.00  0.00    +0.003 A 
ATOM     10  H   UNL     1      81.266 -12.497  27.815  0.00  0.00    +0.000 HD
ENDROOT
BRANCH   9  11
ATOM     11  C   UNL     1      83.711 -14.917  24.794  0.00  0.00    +0.071 C 
BRANCH  11  12
ATOM     12  O   UNL     1      85.035 -14.398  24.856  0.00  0.00    -0.390 OA
ATOM     13  H   UNL     1      85.170 -13.766  24.133  0.00  0.00    +0.000 HD
ENDBRANCH  11  12
ENDBRANCH   9  11
TORSDOF 2
ENDMDL
MODEL 2
REMARK VINA RESULT:    -5.441      7.233      8.799
REMARK INTER + INTRA:          -5.946
REMARK INTER:                  -5.904
REMARK INTRA:                  -0.043
REMARK UNBOUND:                -0.029
REMARK  Name = 4.sdf
REMARK  2 active torsions:
REMARK  status: ('A' for Active; 'I' for Inactive)
REMARK    1  A    between atoms: C_9  and  C_10
REMARK    2  A    between atoms: C_10  and  O_11
REMARK                            x       y       z     vdW  Elec       q    Type
REMARK                         _______ _______ _______ _____ _____    ______ ____
ROOT
ATOM      1  C   UNL     1      73.312  -7.221  28.705  0.00  0.00    -0.061 A 
ATOM      2  C   UNL     1      73.529  -7.260  30.080  0.00  0.00    -0.060 A 
ATOM      3  C   UNL     1      74.768  -7.644  30.600  0.00  0.00    -0.038 A 
ATOM      4  C   UNL     1      75.777  -7.992  29.694  0.00  0.00    +0.047 A 
ATOM      5  C   UNL     1      75.590  -7.975  28.309  0.00  0.00    +0.005 A 
ATOM      6  C   UNL     1      74.332  -7.573  27.811  0.00  0.00    -0.052 A 
ATOM      7  N   UNL     1      77.068  -8.401  29.926  0.00  0.00    -0.360 N 
ATOM      8  C   UNL     1      77.699  -8.659  28.741  0.00  0.00    +0.008 A 
ATOM      9  C   UNL     1      76.816  -8.414  27.706  0.00  0.00    +0.003 A 
ATOM     10  H   UNL     1      77.478  -8.496  30.816  0.00  0.00    +0.000 HD
ENDROOT
BRANCH   9  11
ATOM     11  C   UNL     1      77.097  -8.609  26.255  0.00  0.00    +0.071 C 
BRANCH  11  12
ATOM     12  O   UNL     1      76.774  -9.927  25.823  0.00  0.00    -0.390 OA
ATOM     13  H   UNL     1      75.810 -10.020  25.761  0.00  0.00    +0.000 HD
ENDBRANCH  11  12
ENDBRANCH   9  11
TORSDOF 2
ENDMDL
MODEL 3
REMARK VINA RESULT:    -5.391      9.910     11.131
REMARK INTER + INTRA:          -5.892
REMARK INTER:                  -5.861
REMARK INTRA:                  -0.031
REMARK UNBOUND:                -0.029
REMARK  Name = 4.sdf
REMARK  2 active torsions:
REMARK  status: ('A' for Active; 'I' for Inactive)
REMARK    1  A    between atoms: C_9  and  C_10
REMARK    2  A    between atoms: C_10  and  O_11
REMARK                            x       y       z     vdW  Elec       q    Type
REMARK                         _______ _______ _______ _____ _____    ______ ____
ROOT
ATOM      1  C   UNL     1      73.108  -5.457  30.222  0.00  0.00    -0.061 A 
ATOM      2  C   UNL     1      73.085  -6.849  30.249  0.00  0.00    -0.060 A 
ATOM      3  C   UNL     1      74.272  -7.585  30.271  0.00  0.00    -0.038 A 
ATOM      4  C   UNL     1      75.480  -6.877  30.260  0.00  0.00    +0.047 A 
ATOM      5  C   UNL     1      75.539  -5.481  30.221  0.00  0.00    +0.005 A 
ATOM      6  C   UNL     1      74.325  -4.763  30.210  0.00  0.00    -0.052 A 
ATOM      7  N   UNL     1      76.774  -7.340  30.274  0.00  0.00    -0.360 N 
ATOM      8  C   UNL     1      77.648  -6.291  30.231  0.00  0.00    +0.008 A 
ATOM      9  C   UNL     1      76.926  -5.113  30.190  0.00  0.00    +0.003 A 
ATOM     10  H   UNL     1      77.032  -8.289  30.310  0.00  0.00    +0.000 HD
ENDROOT
BRANCH   9  11
ATOM     11  C   UNL     1      77.500  -3.740  30.098  0.00  0.00    +0.071 C 
BRANCH  11  12
ATOM     12  O   UNL     1      78.019  -3.467  28.800  0.00  0.00    -0.390 OA
ATOM     13  H   UNL     1      77.448  -2.825  28.351  0.00  0.00    +0.000 HD
ENDBRANCH  11  12
ENDBRANCH   9  11
TORSDOF 2
ENDMDL
