MODEL 1
REMARK VINA RESULT:    -8.733      0.000      0.000
REMARK INTER + INTRA:         -11.055
REMARK INTER:                 -10.520
REMARK INTRA:                  -0.535
REMARK UNBOUND:                -0.535
REMARK  Name = 4c.sdf
REMARK  4 active torsions:
REMARK  status: ('A' for Active; 'I' for Inactive)
REMARK    1  A    between atoms: N_7  and  C_11
REMARK    2  A    between atoms: C_9  and  C_10
REMARK    3  A    between atoms: C_10  and  O_19
REMARK    4  A    between atoms: C_11  and  C_12
REMARK                            x       y       z     vdW  Elec       q    Type
REMARK                         _______ _______ _______ _____ _____    ______ ____
ROOT
ATOM      1  C   UNL     1      73.255  -7.304  30.043  0.00  0.00    -0.061 A 
ATOM      2  C   UNL     1      73.143  -7.257  28.658  0.00  0.00    -0.060 A 
ATOM      3  C   UNL     1      74.276  -7.258  27.841  0.00  0.00    -0.038 A 
ATOM      4  C   UNL     1      75.539  -7.321  28.456  0.00  0.00    +0.050 A 
ATOM      5  C   UNL     1      75.676  -7.410  29.844  0.00  0.00    +0.005 A 
ATOM      6  C   UNL     1      74.515  -7.384  30.646  0.00  0.00    -0.052 A 
ATOM      7  N   UNL     1      76.817  -7.295  27.927  0.00  0.00    -0.342 N 
ATOM      8  C   UNL     1      77.739  -7.428  28.933  0.00  0.00    +0.011 A 
ATOM      9  C   UNL     1      77.073  -7.507  30.141  0.00  0.00    +0.003 A 
ENDROOT
BRANCH   9  10
ATOM     10  C   UNL     1      77.681  -7.650  31.494  0.00  0.00    +0.071 C 
BRANCH  10  11
ATOM     11  O   UNL     1      77.864  -6.390  32.139  0.00  0.00    -0.390 OA
ATOM     12  H   UNL     1      78.806  -6.259  32.331  0.00  0.00    +0.000 HD
ENDBRANCH  10  11
ENDBRANCH   9  10
BRANCH   7  13
ATOM     13  C   UNL     1      77.162  -7.047  26.528  0.00  0.00    +0.048 C 
BRANCH  13  14
ATOM     14  C   UNL     1      77.529  -8.322  25.809  0.00  0.00    -0.028 A 
ATOM     15  C   UNL     1      78.538  -8.325  24.833  0.00  0.00    -0.055 A 
ATOM     16  C   UNL     1      78.826  -9.485  24.111  0.00  0.00    -0.043 A 
ATOM     17  C   UNL     1      78.112 -10.653  24.366  0.00  0.00    +0.041 A 
ATOM     18  C   UNL     1      77.132 -10.678  25.355  0.00  0.00    -0.043 A 
ATOM     19  C   UNL     1      76.842  -9.517  26.075  0.00  0.00    -0.055 A 
ATOM     20 CL   UNL     1      78.435 -12.068  23.443  0.00  0.00    -0.084 Cl
ENDBRANCH  13  14
ENDBRANCH   7  13
TORSDOF 4
ENDMDL
MODEL 2
REMARK VINA RESULT:    -7.924      2.112      2.665
REMARK INTER + INTRA:         -10.080
REMARK INTER:                  -9.591
REMARK INTRA:                  -0.489
REMARK UNBOUND:                -0.535
REMARK  Name = 4c.sdf
REMARK  4 active torsions:
REMARK  status: ('A' for Active; 'I' for Inactive)
REMARK    1  A    between atoms: N_7  and  C_11
REMARK    2  A    between atoms: C_9  and  C_10
REMARK    3  A    between atoms: C_10  and  O_19
REMARK    4  A    between atoms: C_11  and  C_12
REMARK                            x       y       z     vdW  Elec       q    Type
REMARK                         _______ _______ _______ _____ _____    ______ ____
ROOT
ATOM      1  C   UNL     1      73.142  -5.430  30.045  0.00  0.00    -0.061 A 
ATOM      2  C   UNL     1      73.076  -6.805  30.237  0.00  0.00    -0.060 A 
ATOM      3  C   UNL     1      74.231  -7.590  30.238  0.00  0.00    -0.038 A 
ATOM      4  C   UNL     1      75.470  -6.951  30.053  0.00  0.00    +0.050 A 
ATOM      5  C   UNL     1      75.565  -5.565  29.899  0.00  0.00    +0.005 A 
ATOM      6  C   UNL     1      74.380  -4.800  29.878  0.00  0.00    -0.052 A 
ATOM      7  N   UNL     1      76.756  -7.454  29.964  0.00  0.00    -0.342 N 
ATOM      8  C   UNL     1      77.649  -6.424  29.825  0.00  0.00    +0.011 A 
ATOM      9  C   UNL     1      76.952  -5.231  29.783  0.00  0.00    +0.003 A 
ENDROOT
BRANCH   9  10
ATOM     10  C   UNL     1      77.522  -3.863  29.632  0.00  0.00    +0.071 C 
BRANCH  10  11
ATOM     11  O   UNL     1      78.102  -3.658  28.345  0.00  0.00    -0.390 OA
ATOM     12  H   UNL     1      78.683  -2.881  28.371  0.00  0.00    +0.000 HD
ENDBRANCH  10  11
ENDBRANCH   9  10
BRANCH   7  13
ATOM     13  C   UNL     1      77.122  -8.869  29.909  0.00  0.00    +0.048 C 
BRANCH  13  14
ATOM     14  C   UNL     1      77.383  -9.324  28.494  0.00  0.00    -0.028 A 
ATOM     15  C   UNL     1      76.647  -8.787  27.426  0.00  0.00    -0.055 A 
ATOM     16  C   UNL     1      76.831  -9.262  26.126  0.00  0.00    -0.043 A 
ATOM     17  C   UNL     1      77.759 -10.271  25.883  0.00  0.00    +0.041 A 
ATOM     18  C   UNL     1      78.524 -10.790  26.925  0.00  0.00    -0.043 A 
ATOM     19  C   UNL     1      78.337 -10.317  28.226  0.00  0.00    -0.055 A 
ATOM     20 CL   UNL     1      77.951 -10.888  24.290  0.00  0.00    -0.084 Cl
ENDBRANCH  13  14
ENDBRANCH   7  13
TORSDOF 4
ENDMDL
MODEL 3
REMARK VINA RESULT:    -7.791      4.302      7.348
REMARK INTER + INTRA:          -9.921
REMARK INTER:                  -9.377
REMARK INTRA:                  -0.543
REMARK UNBOUND:                -0.535
REMARK  Name = 4c.sdf
REMARK  4 active torsions:
REMARK  status: ('A' for Active; 'I' for Inactive)
REMARK    1  A    between atoms: N_7  and  C_11
REMARK    2  A    between atoms: C_9  and  C_10
REMARK    3  A    between atoms: C_10  and  O_19
REMARK    4  A    between atoms: C_11  and  C_12
REMARK                            x       y       z     vdW  Elec       q    Type
REMARK                         _______ _______ _______ _____ _____    ______ ____
ROOT
ATOM      1  C   UNL     1      82.239 -13.970  25.054  0.00  0.00    -0.061 A 
ATOM      2  C   UNL     1      81.127 -13.912  24.222  0.00  0.00    -0.060 A 
ATOM      3  C   UNL     1      80.490 -12.698  23.952  0.00  0.00    -0.038 A 
ATOM      4  C   UNL     1      81.011 -11.530  24.535  0.00  0.00    +0.050 A 
ATOM      5  C   UNL     1      82.151 -11.558  25.342  0.00  0.00    +0.005 A 
ATOM      6  C   UNL     1      82.761 -12.801  25.616  0.00  0.00    -0.052 A 
ATOM      7  N   UNL     1      80.582 -10.215  24.492  0.00  0.00    -0.342 N 
ATOM      8  C   UNL     1      81.452  -9.419  25.190  0.00  0.00    +0.011 A 
ATOM      9  C   UNL     1      82.446 -10.212  25.732  0.00  0.00    +0.003 A 
ENDROOT
BRANCH   9  10
ATOM     10  C   UNL     1      83.593  -9.767  26.572  0.00  0.00    +0.071 C 
BRANCH  10  11
ATOM     11  O   UNL     1      84.841  -9.894  25.892  0.00  0.00    -0.390 OA
ATOM     12  H   UNL     1      85.091  -9.036  25.513  0.00  0.00    +0.000 HD
ENDBRANCH  10  11
ENDBRANCH   9  10
BRANCH   7  13
ATOM     13  C   UNL     1      79.334  -9.738  23.898  0.00  0.00    +0.048 C 
BRANCH  13  14
ATOM     14  C   UNL     1      78.346  -9.299  24.950  0.00  0.00    -0.028 A 
ATOM     15  C   UNL     1      77.465 -10.224  25.531  0.00  0.00    -0.055 A 
ATOM     16  C   UNL     1      76.498  -9.807  26.447  0.00  0.00    -0.043 A 
ATOM     17  C   UNL     1      76.410  -8.462  26.795  0.00  0.00    +0.041 A 
ATOM     18  C   UNL     1      77.299  -7.535  26.256  0.00  0.00    -0.043 A 
ATOM     19  C   UNL     1      78.264  -7.952  25.337  0.00  0.00    -0.055 A 
ATOM     20 CL   UNL     1      75.187  -7.941  27.887  0.00  0.00    -0.084 Cl
ENDBRANCH  13  14
ENDBRANCH   7  13
TORSDOF 4
ENDMDL
