MODEL 1
REMARK VINA RESULT:    -6.752      0.000      0.000
REMARK INTER + INTRA:          -8.070
REMARK INTER:                  -7.936
REMARK INTRA:                  -0.134
REMARK UNBOUND:                -0.134
REMARK  Name = 5.sdf
REMARK  4 active torsions:
REMARK  status: ('A' for Active; 'I' for Inactive)
REMARK    1  A    between atoms: C_9  and  C_10
REMARK    2  A    between atoms: C_11  and  C_12
REMARK    3  A    between atoms: C_12  and  O_13
REMARK    4  A    between atoms: O_13  and  C_15
REMARK                            x       y       z     vdW  Elec       q    Type
REMARK                         _______ _______ _______ _____ _____    ______ ____
ROOT
ATOM      1  C   UNL     1      73.075  -7.227  29.452  0.00  0.00    -0.061 A 
ATOM      2  C   UNL     1      73.108  -6.079  30.240  0.00  0.00    -0.060 A 
ATOM      3  C   UNL     1      74.177  -5.189  30.149  0.00  0.00    -0.038 A 
ATOM      4  C   UNL     1      75.205  -5.494  29.249  0.00  0.00    +0.047 A 
ATOM      5  C   UNL     1      75.213  -6.636  28.438  0.00  0.00    +0.007 A 
ATOM      6  C   UNL     1      74.115  -7.517  28.553  0.00  0.00    -0.052 A 
ATOM      7  N   UNL     1      76.352  -4.791  28.971  0.00  0.00    -0.360 N 
ATOM      8  C   UNL     1      77.091  -5.445  28.026  0.00  0.00    +0.010 A 
ATOM      9  C   UNL     1      76.425  -6.600  27.660  0.00  0.00    +0.000 A 
ATOM     10  H   UNL     1      76.605  -3.938  29.393  0.00  0.00    +0.000 HD
ENDROOT
BRANCH   9  11
ATOM     11  C   UNL     1      76.905  -7.548  26.682  0.00  0.00    -0.046 C 
ATOM     12  C   UNL     1      76.730  -8.883  26.783  0.00  0.00    +0.023 C 
BRANCH  12  13
ATOM     13  C   UNL     1      77.150  -9.976  25.885  0.00  0.00    +0.332 C 
ATOM     14  O   UNL     1      76.477 -10.994  25.788  0.00  0.00    -0.246 OA
BRANCH  13  15
ATOM     15  O   UNL     1      78.305  -9.736  25.220  0.00  0.00    -0.465 OA
ATOM     16  C   UNL     1      78.354 -10.393  23.945  0.00  0.00    +0.082 C 
ENDBRANCH  13  15
ENDBRANCH  12  13
ENDBRANCH   9  11
TORSDOF 3
ENDMDL
MODEL 2
REMARK VINA RESULT:    -6.659      1.846      2.158
REMARK INTER + INTRA:          -7.961
REMARK INTER:                  -7.781
REMARK INTRA:                  -0.180
REMARK UNBOUND:                -0.134
REMARK  Name = 5.sdf
REMARK  4 active torsions:
REMARK  status: ('A' for Active; 'I' for Inactive)
REMARK    1  A    between atoms: C_9  and  C_10
REMARK    2  A    between atoms: C_11  and  C_12
REMARK    3  A    between atoms: C_12  and  O_13
REMARK    4  A    between atoms: O_13  and  C_15
REMARK                            x       y       z     vdW  Elec       q    Type
REMARK                         _______ _______ _______ _____ _____    ______ ____
ROOT
ATOM      1  C   UNL     1      73.076  -7.008  28.641  0.00  0.00    -0.061 A 
ATOM      2  C   UNL     1      73.191  -7.140  30.023  0.00  0.00    -0.060 A 
ATOM      3  C   UNL     1      74.375  -7.609  30.592  0.00  0.00    -0.038 A 
ATOM      4  C   UNL     1      75.426  -7.940  29.731  0.00  0.00    +0.047 A 
ATOM      5  C   UNL     1      75.355  -7.822  28.337  0.00  0.00    +0.007 A 
ATOM      6  C   UNL     1      74.144  -7.344  27.791  0.00  0.00    -0.052 A 
ATOM      7  N   UNL     1      76.680  -8.414  30.034  0.00  0.00    -0.360 N 
ATOM      8  C   UNL     1      77.401  -8.611  28.890  0.00  0.00    +0.010 A 
ATOM      9  C   UNL     1      76.621  -8.257  27.805  0.00  0.00    +0.000 A 
ATOM     10  H   UNL     1      77.011  -8.588  30.945  0.00  0.00    +0.000 HD
ENDROOT
BRANCH   9  11
ATOM     11  C   UNL     1      77.050  -8.332  26.427  0.00  0.00    -0.046 C 
ATOM     12  C   UNL     1      77.803  -9.336  25.931  0.00  0.00    +0.023 C 
BRANCH  12  13
ATOM     13  C   UNL     1      78.320  -9.562  24.567  0.00  0.00    +0.332 C 
ATOM     14  O   UNL     1      78.912  -8.672  23.971  0.00  0.00    -0.246 OA
BRANCH  13  15
ATOM     15  O   UNL     1      78.074 -10.801  24.077  0.00  0.00    -0.465 OA
ATOM     16  C   UNL     1      79.244 -11.632  24.068  0.00  0.00    +0.082 C 
ENDBRANCH  13  15
ENDBRANCH  12  13
ENDBRANCH   9  11
TORSDOF 3
ENDMDL
MODEL 3
REMARK VINA RESULT:    -6.650      2.953      6.445
REMARK INTER + INTRA:          -7.950
REMARK INTER:                  -7.771
REMARK INTRA:                  -0.180
REMARK UNBOUND:                -0.134
REMARK  Name = 5.sdf
REMARK  4 active torsions:
REMARK  status: ('A' for Active; 'I' for Inactive)
REMARK    1  A    between atoms: C_9  and  C_10
REMARK    2  A    between atoms: C_11  and  C_12
REMARK    3  A    between atoms: C_12  and  O_13
REMARK    4  A    between atoms: O_13  and  C_15
REMARK                            x       y       z     vdW  Elec       q    Type
REMARK                         _______ _______ _______ _____ _____    ______ ____
ROOT
ATOM      1  C   UNL     1      78.146 -11.674  23.531  0.00  0.00    -0.061 A 
ATOM      2  C   UNL     1      79.413 -11.250  23.138  0.00  0.00    -0.060 A 
ATOM      3  C   UNL     1      79.989 -10.117  23.711  0.00  0.00    -0.038 A 
ATOM      4  C   UNL     1      79.251  -9.430  24.682  0.00  0.00    +0.047 A 
ATOM      5  C   UNL     1      77.976  -9.821  25.109  0.00  0.00    +0.007 A 
ATOM      6  C   UNL     1      77.420 -10.973  24.510  0.00  0.00    -0.052 A 
ATOM      7  N   UNL     1      79.589  -8.304  25.392  0.00  0.00    -0.360 N 
ATOM      8  C   UNL     1      78.576  -7.959  26.243  0.00  0.00    +0.010 A 
ATOM      9  C   UNL     1      77.548  -8.872  26.105  0.00  0.00    +0.000 A 
ATOM     10  H   UNL     1      80.438  -7.815  25.301  0.00  0.00    +0.000 HD
ENDROOT
BRANCH   9  11
ATOM     11  C   UNL     1      76.308  -8.830  26.845  0.00  0.00    -0.046 C 
ATOM     12  C   UNL     1      75.949  -7.805  27.647  0.00  0.00    +0.023 C 
BRANCH  12  13
ATOM     13  C   UNL     1      74.735  -7.606  28.462  0.00  0.00    +0.332 C 
ATOM     14  O   UNL     1      74.750  -7.830  29.665  0.00  0.00    -0.246 OA
BRANCH  13  15
ATOM     15  O   UNL     1      73.660  -7.172  27.762  0.00  0.00    -0.465 OA
ATOM     16  C   UNL     1      73.278  -5.834  28.110  0.00  0.00    +0.082 C 
ENDBRANCH  13  15
ENDBRANCH  12  13
ENDBRANCH   9  11
TORSDOF 3
ENDMDL
