MODEL 1
REMARK VINA RESULT:    -7.628      0.000      0.000
REMARK INTER + INTRA:         -10.667
REMARK INTER:                  -9.858
REMARK INTRA:                  -0.808
REMARK UNBOUND:                -0.808
REMARK  Name = 7b.sdf
REMARK  6 active torsions:
REMARK  status: ('A' for Active; 'I' for Inactive)
REMARK    1  A    between atoms: N_7  and  C_12
REMARK    2  A    between atoms: C_9  and  C_10
REMARK    3  A    between atoms: C_10  and  C_11
REMARK    4  A    between atoms: C_11  and  O_20
REMARK    5  A    between atoms: C_12  and  C_13
REMARK    6  A    between atoms: O_20  and  C_21
REMARK                            x       y       z     vdW  Elec       q    Type
REMARK                         _______ _______ _______ _____ _____    ______ ____
ROOT
ATOM      1  C   UNL     1      73.159  -7.208  29.845  0.00  0.00    -0.061 A 
ATOM      2  C   UNL     1      73.075  -7.219  28.456  0.00  0.00    -0.060 A 
ATOM      3  C   UNL     1      74.227  -7.280  27.666  0.00  0.00    -0.038 A 
ATOM      4  C   UNL     1      75.473  -7.327  28.312  0.00  0.00    +0.050 A 
ATOM      5  C   UNL     1      75.582  -7.359  29.707  0.00  0.00    +0.004 A 
ATOM      6  C   UNL     1      74.403  -7.290  30.479  0.00  0.00    -0.052 A 
ATOM      7  N   UNL     1      76.759  -7.347  27.812  0.00  0.00    -0.342 N 
ATOM      8  C   UNL     1      77.664  -7.453  28.839  0.00  0.00    +0.010 A 
ATOM      9  C   UNL     1      76.971  -7.479  30.032  0.00  0.00    -0.012 A 
ENDROOT
BRANCH   9  10
ATOM     10  C   UNL     1      77.568  -7.598  31.399  0.00  0.00    +0.072 C 
BRANCH  10  11
ATOM     11  C   UNL     1      79.081  -7.677  31.385  0.00  0.00    +0.311 C 
ATOM     12  O   UNL     1      79.868  -6.739  31.369  0.00  0.00    -0.250 OA
BRANCH  11  13
ATOM     13  O   UNL     1      79.456  -8.994  31.402  0.00  0.00    -0.468 OA
ATOM     14  C   UNL     1      80.647  -9.267  30.664  0.00  0.00    +0.082 C 
ENDBRANCH  11  13
ENDBRANCH  10  11
ENDBRANCH   9  10
BRANCH   7  15
ATOM     15  C   UNL     1      77.138  -7.190  26.409  0.00  0.00    +0.048 C 
BRANCH  15  16
ATOM     16  C   UNL     1      77.600  -8.456  25.729  0.00  0.00    -0.025 A 
ATOM     17  C   UNL     1      77.067  -9.722  25.989  0.00  0.00    -0.039 A 
ATOM     18  C   UNL     1      77.590 -10.820  25.324  0.00  0.00    +0.028 A 
ATOM     19  N   UNL     1      78.583 -10.748  24.413  0.00  0.00    -0.263 NA
ATOM     20  C   UNL     1      79.074  -9.519  24.154  0.00  0.00    +0.028 A 
ATOM     21  C   UNL     1      78.621  -8.363  24.773  0.00  0.00    -0.039 A 
ENDBRANCH  15  16
ENDBRANCH   7  15
TORSDOF 5
ENDMDL
MODEL 2
REMARK VINA RESULT:    -7.614      2.856      3.677
REMARK INTER + INTRA:         -10.648
REMARK INTER:                  -9.983
REMARK INTRA:                  -0.665
REMARK UNBOUND:                -0.808
REMARK  Name = 7b.sdf
REMARK  6 active torsions:
REMARK  status: ('A' for Active; 'I' for Inactive)
REMARK    1  A    between atoms: N_7  and  C_12
REMARK    2  A    between atoms: C_9  and  C_10
REMARK    3  A    between atoms: C_10  and  C_11
REMARK    4  A    between atoms: C_11  and  O_20
REMARK    5  A    between atoms: C_12  and  C_13
REMARK    6  A    between atoms: O_20  and  C_21
REMARK                            x       y       z     vdW  Elec       q    Type
REMARK                         _______ _______ _______ _____ _____    ______ ____
ROOT
ATOM      1  C   UNL     1      73.075  -5.669  30.230  0.00  0.00    -0.061 A 
ATOM      2  C   UNL     1      73.248  -7.039  30.397  0.00  0.00    -0.060 A 
ATOM      3  C   UNL     1      74.521  -7.615  30.343  0.00  0.00    -0.038 A 
ATOM      4  C   UNL     1      75.622  -6.773  30.113  0.00  0.00    +0.050 A 
ATOM      5  C   UNL     1      75.477  -5.387  29.985  0.00  0.00    +0.004 A 
ATOM      6  C   UNL     1      74.180  -4.834  30.037  0.00  0.00    -0.052 A 
ATOM      7  N   UNL     1      76.966  -7.048  29.968  0.00  0.00    -0.342 N 
ATOM      8  C   UNL     1      77.674  -5.882  29.815  0.00  0.00    +0.010 A 
ATOM      9  C   UNL     1      76.786  -4.825  29.836  0.00  0.00    -0.012 A 
ENDROOT
BRANCH   9  10
ATOM     10  C   UNL     1      77.134  -3.375  29.713  0.00  0.00    +0.072 C 
BRANCH  10  11
ATOM     11  C   UNL     1      78.531  -3.140  29.175  0.00  0.00    +0.311 C 
ATOM     12  O   UNL     1      78.909  -3.282  28.019  0.00  0.00    -0.250 OA
BRANCH  11  13
ATOM     13  O   UNL     1      79.336  -2.724  30.202  0.00  0.00    -0.468 OA
ATOM     14  C   UNL     1      79.569  -1.316  30.220  0.00  0.00    +0.082 C 
ENDBRANCH  11  13
ENDBRANCH  10  11
ENDBRANCH   9  10
BRANCH   7  15
ATOM     15  C   UNL     1      77.567  -8.379  29.893  0.00  0.00    +0.048 C 
BRANCH  15  16
ATOM     16  C   UNL     1      77.461  -9.051  28.546  0.00  0.00    -0.025 A 
ATOM     17  C   UNL     1      76.908  -8.446  27.412  0.00  0.00    -0.039 A 
ATOM     18  C   UNL     1      76.836  -9.171  26.233  0.00  0.00    +0.028 A 
ATOM     19  N   UNL     1      77.287 -10.435  26.096  0.00  0.00    -0.263 NA
ATOM     20  C   UNL     1      77.838 -11.000  27.189  0.00  0.00    +0.028 A 
ATOM     21  C   UNL     1      77.948 -10.358  28.414  0.00  0.00    -0.039 A 
ENDBRANCH  15  16
ENDBRANCH   7  15
TORSDOF 5
ENDMDL
MODEL 3
REMARK VINA RESULT:    -7.577      4.223      6.126
REMARK INTER + INTRA:         -10.600
REMARK INTER:                  -9.848
REMARK INTRA:                  -0.752
REMARK UNBOUND:                -0.808
REMARK  Name = 7b.sdf
REMARK  6 active torsions:
REMARK  status: ('A' for Active; 'I' for Inactive)
REMARK    1  A    between atoms: N_7  and  C_12
REMARK    2  A    between atoms: C_9  and  C_10
REMARK    3  A    between atoms: C_10  and  C_11
REMARK    4  A    between atoms: C_11  and  O_20
REMARK    5  A    between atoms: C_12  and  C_13
REMARK    6  A    between atoms: O_20  and  C_21
REMARK                            x       y       z     vdW  Elec       q    Type
REMARK                         _______ _______ _______ _____ _____    ______ ____
ROOT
ATOM      1  C   UNL     1      77.021 -10.380  26.278  0.00  0.00    -0.061 A 
ATOM      2  C   UNL     1      77.580 -10.433  25.005  0.00  0.00    -0.060 A 
ATOM      3  C   UNL     1      78.912 -10.817  24.820  0.00  0.00    -0.038 A 
ATOM      4  C   UNL     1      79.672 -11.146  25.954  0.00  0.00    +0.050 A 
ATOM      5  C   UNL     1      79.119 -11.142  27.240  0.00  0.00    +0.004 A 
ATOM      6  C   UNL     1      77.775 -10.743  27.398  0.00  0.00    -0.052 A 
ATOM      7  N   UNL     1      80.996 -11.511  26.091  0.00  0.00    -0.342 N 
ATOM      8  C   UNL     1      81.275 -11.794  27.405  0.00  0.00    +0.010 A 
ATOM      9  C   UNL     1      80.130 -11.591  28.149  0.00  0.00    -0.012 A 
ENDROOT
BRANCH   9  10
ATOM     10  C   UNL     1      79.988 -11.794  29.625  0.00  0.00    +0.072 C 
BRANCH  10  11
ATOM     11  C   UNL     1      81.318 -11.894  30.345  0.00  0.00    +0.311 C 
ATOM     12  O   UNL     1      81.935 -12.917  30.612  0.00  0.00    -0.250 OA
BRANCH  11  13
ATOM     13  O   UNL     1      81.748 -10.632  30.656  0.00  0.00    -0.468 OA
ATOM     14  C   UNL     1      83.139 -10.419  30.413  0.00  0.00    +0.082 C 
ENDBRANCH  11  13
ENDBRANCH  10  11
ENDBRANCH   9  10
BRANCH   7  15
ATOM     15  C   UNL     1      81.999 -11.519  25.028  0.00  0.00    +0.048 C 
BRANCH  15  16
ATOM     16  C   UNL     1      82.850 -12.763  24.964  0.00  0.00    -0.025 A 
ATOM     17  C   UNL     1      82.394 -13.999  24.494  0.00  0.00    -0.039 A 
ATOM     18  C   UNL     1      83.259 -15.083  24.509  0.00  0.00    +0.028 A 
ATOM     19  N   UNL     1      84.537 -15.022  24.935  0.00  0.00    -0.263 NA
ATOM     20  C   UNL     1      84.972 -13.821  25.366  0.00  0.00    +0.028 A 
ATOM     21  C   UNL     1      84.181 -12.681  25.396  0.00  0.00    -0.039 A 
ENDBRANCH  15  16
ENDBRANCH   7  15
TORSDOF 5
ENDMDL
