MODEL 1
REMARK VINA RESULT:    -8.933      0.000      0.000
REMARK INTER + INTRA:         -12.280
REMARK INTER:                 -11.544
REMARK INTRA:                  -0.736
REMARK UNBOUND:                -0.736
REMARK  Name = 7c.sdf
REMARK  6 active torsions:
REMARK  status: ('A' for Active; 'I' for Inactive)
REMARK    1  A    between atoms: N_7  and  C_12
REMARK    2  A    between atoms: C_9  and  C_10
REMARK    3  A    between atoms: C_10  and  C_11
REMARK    4  A    between atoms: C_11  and  O_21
REMARK    5  A    between atoms: C_12  and  C_13
REMARK    6  A    between atoms: O_21  and  C_22
REMARK                            x       y       z     vdW  Elec       q    Type
REMARK                         _______ _______ _______ _____ _____    ______ ____
ROOT
ATOM      1  C   UNL     1      73.698  -7.461  30.215  0.00  0.00    -0.061 A 
ATOM      2  C   UNL     1      73.439  -7.376  28.852  0.00  0.00    -0.060 A 
ATOM      3  C   UNL     1      74.479  -7.415  27.918  0.00  0.00    -0.038 A 
ATOM      4  C   UNL     1      75.795  -7.552  28.392  0.00  0.00    +0.050 A 
ATOM      5  C   UNL     1      76.074  -7.684  29.757  0.00  0.00    +0.004 A 
ATOM      6  C   UNL     1      75.006  -7.623  30.678  0.00  0.00    -0.052 A 
ATOM      7  N   UNL     1      77.010  -7.573  27.732  0.00  0.00    -0.342 N 
ATOM      8  C   UNL     1      78.026  -7.793  28.630  0.00  0.00    +0.010 A 
ATOM      9  C   UNL     1      77.485  -7.869  29.898  0.00  0.00    -0.012 A 
ENDROOT
BRANCH   9  10
ATOM     10  C   UNL     1      78.237  -8.108  31.168  0.00  0.00    +0.072 C 
BRANCH  10  11
ATOM     11  C   UNL     1      78.025  -7.023  32.202  0.00  0.00    +0.311 C 
ATOM     12  O   UNL     1      77.605  -7.165  33.341  0.00  0.00    -0.250 OA
BRANCH  11  13
ATOM     13  O   UNL     1      78.373  -5.816  31.655  0.00  0.00    -0.468 OA
ATOM     14  C   UNL     1      79.782  -5.589  31.611  0.00  0.00    +0.082 C 
ENDBRANCH  11  13
ENDBRANCH  10  11
ENDBRANCH   9  10
BRANCH   7  15
ATOM     15  C   UNL     1      77.228  -7.320  26.310  0.00  0.00    +0.048 C 
BRANCH  15  16
ATOM     16  C   UNL     1      77.698  -8.565  25.599  0.00  0.00    -0.028 A 
ATOM     17  C   UNL     1      78.742  -8.499  24.666  0.00  0.00    -0.055 A 
ATOM     18  C   UNL     1      79.095  -9.622  23.916  0.00  0.00    -0.043 A 
ATOM     19  C   UNL     1      78.412 -10.821  24.102  0.00  0.00    +0.041 A 
ATOM     20  C   UNL     1      77.405 -10.918  25.060  0.00  0.00    -0.043 A 
ATOM     21  C   UNL     1      77.052  -9.794  25.809  0.00  0.00    -0.055 A 
ATOM     22 CL   UNL     1      78.797 -12.185  23.127  0.00  0.00    -0.084 Cl
ENDBRANCH  15  16
ENDBRANCH   7  15
TORSDOF 5
ENDMDL
MODEL 2
REMARK VINA RESULT:    -8.634      1.723      2.367
REMARK INTER + INTRA:         -11.893
REMARK INTER:                 -11.051
REMARK INTRA:                  -0.842
REMARK UNBOUND:                -0.736
REMARK  Name = 7c.sdf
REMARK  6 active torsions:
REMARK  status: ('A' for Active; 'I' for Inactive)
REMARK    1  A    between atoms: N_7  and  C_12
REMARK    2  A    between atoms: C_9  and  C_10
REMARK    3  A    between atoms: C_10  and  C_11
REMARK    4  A    between atoms: C_11  and  O_21
REMARK    5  A    between atoms: C_12  and  C_13
REMARK    6  A    between atoms: O_21  and  C_22
REMARK                            x       y       z     vdW  Elec       q    Type
REMARK                         _______ _______ _______ _____ _____    ______ ____
ROOT
ATOM      1  C   UNL     1      74.197  -7.591  30.318  0.00  0.00    -0.061 A 
ATOM      2  C   UNL     1      73.889  -7.410  28.975  0.00  0.00    -0.060 A 
ATOM      3  C   UNL     1      74.893  -7.401  28.001  0.00  0.00    -0.038 A 
ATOM      4  C   UNL     1      76.223  -7.591  28.413  0.00  0.00    +0.050 A 
ATOM      5  C   UNL     1      76.549  -7.820  29.754  0.00  0.00    +0.004 A 
ATOM      6  C   UNL     1      75.518  -7.805  30.718  0.00  0.00    -0.052 A 
ATOM      7  N   UNL     1      77.411  -7.586  27.708  0.00  0.00    -0.342 N 
ATOM      8  C   UNL     1      78.456  -7.883  28.548  0.00  0.00    +0.010 A 
ATOM      9  C   UNL     1      77.961  -8.037  29.829  0.00  0.00    -0.012 A 
ENDROOT
BRANCH   9  10
ATOM     10  C   UNL     1      78.755  -8.374  31.050  0.00  0.00    +0.072 C 
BRANCH  10  11
ATOM     11  C   UNL     1      79.873  -9.360  30.784  0.00  0.00    +0.311 C 
ATOM     12  O   UNL     1      81.058  -9.102  30.629  0.00  0.00    -0.250 OA
BRANCH  11  13
ATOM     13  O   UNL     1      79.346 -10.623  30.729  0.00  0.00    -0.468 OA
ATOM     14  C   UNL     1      80.301 -11.631  30.397  0.00  0.00    +0.082 C 
ENDBRANCH  11  13
ENDBRANCH  10  11
ENDBRANCH   9  10
BRANCH   7  15
ATOM     15  C   UNL     1      77.581  -7.241  26.299  0.00  0.00    +0.048 C 
BRANCH  15  16
ATOM     16  C   UNL     1      77.864  -8.466  25.465  0.00  0.00    -0.028 A 
ATOM     17  C   UNL     1      77.145  -9.651  25.675  0.00  0.00    -0.055 A 
ATOM     18  C   UNL     1      77.490 -10.819  24.993  0.00  0.00    -0.043 A 
ATOM     19  C   UNL     1      78.548 -10.807  24.090  0.00  0.00    +0.041 A 
ATOM     20  C   UNL     1      79.241  -9.626  23.832  0.00  0.00    -0.043 A 
ATOM     21  C   UNL     1      78.898  -8.458  24.514  0.00  0.00    -0.055 A 
ATOM     22 CL   UNL     1      79.019 -12.263  23.305  0.00  0.00    -0.084 Cl
ENDBRANCH  15  16
ENDBRANCH   7  15
TORSDOF 5
ENDMDL
MODEL 3
REMARK VINA RESULT:    -8.507      2.509      3.420
REMARK INTER + INTRA:         -11.730
REMARK INTER:                 -11.199
REMARK INTRA:                  -0.532
REMARK UNBOUND:                -0.736
REMARK  Name = 7c.sdf
REMARK  6 active torsions:
REMARK  status: ('A' for Active; 'I' for Inactive)
REMARK    1  A    between atoms: N_7  and  C_12
REMARK    2  A    between atoms: C_9  and  C_10
REMARK    3  A    between atoms: C_10  and  C_11
REMARK    4  A    between atoms: C_11  and  O_21
REMARK    5  A    between atoms: C_12  and  C_13
REMARK    6  A    between atoms: O_21  and  C_22
REMARK                            x       y       z     vdW  Elec       q    Type
REMARK                         _______ _______ _______ _____ _____    ______ ____
ROOT
ATOM      1  C   UNL     1      73.077  -5.609  30.090  0.00  0.00    -0.061 A 
ATOM      2  C   UNL     1      73.206  -6.963  30.374  0.00  0.00    -0.060 A 
ATOM      3  C   UNL     1      74.463  -7.577  30.400  0.00  0.00    -0.038 A 
ATOM      4  C   UNL     1      75.595  -6.787  30.139  0.00  0.00    +0.050 A 
ATOM      5  C   UNL     1      75.491  -5.413  29.895  0.00  0.00    +0.004 A 
ATOM      6  C   UNL     1      74.209  -4.824  29.857  0.00  0.00    -0.052 A 
ATOM      7  N   UNL     1      76.936  -7.108  30.048  0.00  0.00    -0.342 N 
ATOM      8  C   UNL     1      77.677  -5.971  29.835  0.00  0.00    +0.010 A 
ATOM      9  C   UNL     1      76.815  -4.896  29.735  0.00  0.00    -0.012 A 
ENDROOT
BRANCH   9  10
ATOM     10  C   UNL     1      77.202  -3.469  29.512  0.00  0.00    +0.072 C 
BRANCH  10  11
ATOM     11  C   UNL     1      78.642  -3.300  29.078  0.00  0.00    +0.311 C 
ATOM     12  O   UNL     1      79.104  -3.516  27.967  0.00  0.00    -0.250 OA
BRANCH  11  13
ATOM     13  O   UNL     1      79.380  -2.867  30.148  0.00  0.00    -0.468 OA
ATOM     14  C   UNL     1      79.525  -1.448  30.210  0.00  0.00    +0.082 C 
ENDBRANCH  11  13
ENDBRANCH  10  11
ENDBRANCH   9  10
BRANCH   7  15
ATOM     15  C   UNL     1      77.510  -8.451  30.084  0.00  0.00    +0.048 C 
BRANCH  15  16
ATOM     16  C   UNL     1      77.396  -9.131  28.742  0.00  0.00    -0.028 A 
ATOM     17  C   UNL     1      77.929 -10.412  28.547  0.00  0.00    -0.055 A 
ATOM     18  C   UNL     1      77.936 -10.991  27.277  0.00  0.00    -0.043 A 
ATOM     19  C   UNL     1      77.400 -10.296  26.197  0.00  0.00    +0.041 A 
ATOM     20  C   UNL     1      76.821  -9.044  26.381  0.00  0.00    -0.043 A 
ATOM     21  C   UNL     1      76.815  -8.464  27.651  0.00  0.00    -0.055 A 
ATOM     22 CL   UNL     1      77.475 -10.979  24.619  0.00  0.00    -0.084 Cl
ENDBRANCH  15  16
ENDBRANCH   7  15
TORSDOF 5
ENDMDL
