MODEL 1
REMARK VINA RESULT:    -8.680      0.000      0.000
REMARK INTER + INTRA:         -10.495
REMARK INTER:                 -10.202
REMARK INTRA:                  -0.293
REMARK UNBOUND:                -0.293
REMARK  Name = 8.sdf
REMARK  3 active torsions:
REMARK  status: ('A' for Active; 'I' for Inactive)
REMARK    1  A    between atoms: C_9  and  C_10
REMARK    2  A    between atoms: N_11  and  N_12
REMARK    3  A    between atoms: C_13  and  C_15
REMARK                            x       y       z     vdW  Elec       q    Type
REMARK                         _______ _______ _______ _____ _____    ______ ____
ROOT
ATOM      1  C   UNL     1      78.777 -10.984  25.635  0.00  0.00    +0.055 C 
ATOM      2  N   UNL     1      78.049 -10.093  25.047  0.00  0.00    -0.187 NA
ENDROOT
BRANCH   1  11
ATOM      3  C   UNL     1      82.435 -13.768  26.635  0.00  0.00    -0.061 A 
ATOM      4  C   UNL     1      83.040 -14.263  25.482  0.00  0.00    -0.060 A 
ATOM      5  C   UNL     1      82.564 -13.914  24.216  0.00  0.00    -0.038 A 
ATOM      6  C   UNL     1      81.457 -13.059  24.152  0.00  0.00    +0.047 A 
ATOM      7  C   UNL     1      80.823 -12.547  25.286  0.00  0.00    +0.008 A 
ATOM      8  C   UNL     1      81.330 -12.910  26.553  0.00  0.00    -0.052 A 
ATOM      9  N   UNL     1      80.789 -12.566  23.054  0.00  0.00    -0.360 N 
ATOM     10  C   UNL     1      79.755 -11.771  23.454  0.00  0.00    +0.011 A 
ATOM     11  C   UNL     1      79.736 -11.727  24.838  0.00  0.00    +0.020 A 
ATOM     12  H   UNL     1      81.025 -12.758  22.118  0.00  0.00    +0.000 HD
ENDBRANCH   1  11
BRANCH   2  13
ATOM     13  N   UNL     1      77.145  -9.405  25.804  0.00  0.00    -0.203 N 
ATOM     14  C   UNL     1      77.528  -8.174  26.324  0.00  0.00    +0.263 C 
ATOM     15  O   UNL     1      78.623  -7.647  26.142  0.00  0.00    -0.268 OA
ATOM     16  H   UNL     1      76.247  -9.770  25.976  0.00  0.00    +0.000 HD
BRANCH  14  17
ATOM     17  C   UNL     1      76.518  -7.444  27.142  0.00  0.00    +0.038 A 
ATOM     18  C   UNL     1      75.322  -8.033  27.568  0.00  0.00    -0.049 A 
ATOM     19  C   UNL     1      74.436  -7.310  28.378  0.00  0.00    -0.047 A 
ATOM     20  C   UNL     1      74.748  -6.006  28.763  0.00  0.00    +0.018 A 
ATOM     21  C   UNL     1      75.939  -5.412  28.350  0.00  0.00    -0.047 A 
ATOM     22  C   UNL     1      76.824  -6.134  27.545  0.00  0.00    -0.049 A 
ATOM     23 BR   UNL     1      73.558  -5.044  29.873  0.00  0.00    -0.050 Br
ENDBRANCH  14  17
ENDBRANCH   2  13
TORSDOF 3
ENDMDL
MODEL 2
REMARK VINA RESULT:    -8.661      3.524      8.914
REMARK INTER + INTRA:         -10.472
REMARK INTER:                 -10.161
REMARK INTRA:                  -0.312
REMARK UNBOUND:                -0.293
REMARK  Name = 8.sdf
REMARK  3 active torsions:
REMARK  status: ('A' for Active; 'I' for Inactive)
REMARK    1  A    between atoms: C_9  and  C_10
REMARK    2  A    between atoms: N_11  and  N_12
REMARK    3  A    between atoms: C_13  and  C_15
REMARK                            x       y       z     vdW  Elec       q    Type
REMARK                         _______ _______ _______ _____ _____    ______ ____
ROOT
ATOM      1  C   UNL     1      75.951  -8.344  28.099  0.00  0.00    +0.055 C 
ATOM      2  N   UNL     1      76.038  -8.714  26.863  0.00  0.00    -0.187 NA
ENDROOT
BRANCH   1  11
ATOM      3  C   UNL     1      76.308  -4.362  30.578  0.00  0.00    -0.061 A 
ATOM      4  C   UNL     1      75.111  -3.651  30.591  0.00  0.00    -0.060 A 
ATOM      5  C   UNL     1      73.980  -4.138  29.931  0.00  0.00    -0.038 A 
ATOM      6  C   UNL     1      74.098  -5.358  29.255  0.00  0.00    +0.047 A 
ATOM      7  C   UNL     1      75.284  -6.097  29.218  0.00  0.00    +0.008 A 
ATOM      8  C   UNL     1      76.408  -5.584  29.900  0.00  0.00    -0.052 A 
ATOM      9  N   UNL     1      73.160  -6.057  28.530  0.00  0.00    -0.360 N 
ATOM     10  C   UNL     1      73.711  -7.201  28.031  0.00  0.00    +0.011 A 
ATOM     11  C   UNL     1      75.034  -7.271  28.435  0.00  0.00    +0.020 A 
ATOM     12  H   UNL     1      72.228  -5.772  28.393  0.00  0.00    +0.000 HD
ENDBRANCH   1  11
BRANCH   2  13
ATOM     13  N   UNL     1      76.910  -9.720  26.557  0.00  0.00    -0.203 N 
ATOM     14  C   UNL     1      77.861  -9.484  25.571  0.00  0.00    +0.263 C 
ATOM     15  O   UNL     1      77.988  -8.426  24.959  0.00  0.00    -0.268 OA
ATOM     16  H   UNL     1      76.866 -10.586  27.021  0.00  0.00    +0.000 HD
BRANCH  14  17
ATOM     17  C   UNL     1      78.802 -10.598  25.262  0.00  0.00    +0.038 A 
ATOM     18  C   UNL     1      78.911 -11.164  23.986  0.00  0.00    -0.049 A 
ATOM     19  C   UNL     1      79.851 -12.174  23.748  0.00  0.00    -0.047 A 
ATOM     20  C   UNL     1      80.682 -12.614  24.779  0.00  0.00    +0.018 A 
ATOM     21  C   UNL     1      80.587 -12.053  26.051  0.00  0.00    -0.047 A 
ATOM     22  C   UNL     1      79.651 -11.043  26.289  0.00  0.00    -0.049 A 
ATOM     23 BR   UNL     1      81.962 -13.962  24.444  0.00  0.00    -0.050 Br
ENDBRANCH  14  17
ENDBRANCH   2  13
TORSDOF 3
ENDMDL
MODEL 3
REMARK VINA RESULT:    -8.590      5.322      9.272
REMARK INTER + INTRA:         -10.390
REMARK INTER:                 -10.054
REMARK INTRA:                  -0.336
REMARK UNBOUND:                -0.293
REMARK  Name = 8.sdf
REMARK  3 active torsions:
REMARK  status: ('A' for Active; 'I' for Inactive)
REMARK    1  A    between atoms: C_9  and  C_10
REMARK    2  A    between atoms: N_11  and  N_12
REMARK    3  A    between atoms: C_13  and  C_15
REMARK                            x       y       z     vdW  Elec       q    Type
REMARK                         _______ _______ _______ _____ _____    ______ ____
ROOT
ATOM      1  C   UNL     1      77.614  -7.729  29.060  0.00  0.00    +0.055 C 
ATOM      2  N   UNL     1      77.756  -8.601  30.003  0.00  0.00    -0.187 NA
ENDROOT
BRANCH   1  11
ATOM      3  C   UNL     1      75.178  -3.974  30.511  0.00  0.00    -0.061 A 
ATOM      4  C   UNL     1      73.912  -3.923  29.933  0.00  0.00    -0.060 A 
ATOM      5  C   UNL     1      73.488  -4.916  29.047  0.00  0.00    -0.038 A 
ATOM      6  C   UNL     1      74.381  -5.954  28.759  0.00  0.00    +0.047 A 
ATOM      7  C   UNL     1      75.660  -6.036  29.317  0.00  0.00    +0.008 A 
ATOM      8  C   UNL     1      76.059  -5.023  30.215  0.00  0.00    -0.052 A 
ATOM      9  N   UNL     1      74.228  -7.042  27.931  0.00  0.00    -0.360 N 
ATOM     10  C   UNL     1      75.363  -7.800  27.939  0.00  0.00    +0.011 A 
ATOM     11  C   UNL     1      76.284  -7.215  28.790  0.00  0.00    +0.020 A 
ATOM     12  H   UNL     1      73.417  -7.244  27.410  0.00  0.00    +0.000 HD
ENDBRANCH   1  11
BRANCH   2  13
ATOM     13  N   UNL     1      79.010  -9.084  30.244  0.00  0.00    -0.203 N 
ATOM     14  C   UNL     1      79.239 -10.440  30.045  0.00  0.00    +0.263 C 
ATOM     15  O   UNL     1      78.395 -11.243  29.653  0.00  0.00    -0.268 OA
ATOM     16  H   UNL     1      79.732  -8.488  30.549  0.00  0.00    +0.000 HD
BRANCH  14  17
ATOM     17  C   UNL     1      80.619 -10.937  30.311  0.00  0.00    +0.038 A 
ATOM     18  C   UNL     1      80.959 -12.294  30.248  0.00  0.00    -0.049 A 
ATOM     19  C   UNL     1      82.286 -12.692  30.458  0.00  0.00    -0.047 A 
ATOM     20  C   UNL     1      83.268 -11.738  30.725  0.00  0.00    +0.018 A 
ATOM     21  C   UNL     1      82.942 -10.384  30.783  0.00  0.00    -0.047 A 
ATOM     22  C   UNL     1      81.619  -9.986  30.571  0.00  0.00    -0.049 A 
ATOM     23 BR   UNL     1      85.059 -12.281  30.987  0.00  0.00    -0.050 Br
ENDBRANCH  14  17
ENDBRANCH   2  13
TORSDOF 3
ENDMDL
