MODEL 1
REMARK VINA RESULT:    -9.714      0.000      0.000
REMARK INTER + INTRA:         -13.511
REMARK INTER:                 -12.553
REMARK INTRA:                  -0.958
REMARK UNBOUND:                -0.958
REMARK  Name = 8c.sdf
REMARK  5 active torsions:
REMARK  status: ('A' for Active; 'I' for Inactive)
REMARK    1  A    between atoms: N_7  and  C_12
REMARK    2  A    between atoms: C_9  and  C_10
REMARK    3  A    between atoms: N_11  and  N_20
REMARK    4  A    between atoms: C_12  and  C_13
REMARK    5  A    between atoms: C_21  and  C_23
REMARK                            x       y       z     vdW  Elec       q    Type
REMARK                         _______ _______ _______ _____ _____    ______ ____
ROOT
ATOM      1  C   UNL     1      81.111 -13.690  24.248  0.00  0.00    -0.061 A 
ATOM      2  C   UNL     1      80.200 -13.120  23.365  0.00  0.00    -0.060 A 
ATOM      3  C   UNL     1      79.866 -11.765  23.453  0.00  0.00    -0.038 A 
ATOM      4  C   UNL     1      80.481 -10.987  24.448  0.00  0.00    +0.050 A 
ATOM      5  C   UNL     1      81.435 -11.529  25.319  0.00  0.00    +0.009 A 
ATOM      6  C   UNL     1      81.736 -12.907  25.220  0.00  0.00    -0.052 A 
ATOM      7  N   UNL     1      80.326  -9.660  24.800  0.00  0.00    -0.342 N 
ATOM      8  C   UNL     1      81.199  -9.341  25.810  0.00  0.00    +0.015 A 
ATOM      9  C   UNL     1      81.913 -10.473  26.155  0.00  0.00    +0.020 A 
ENDROOT
BRANCH   9  10
ATOM     10  C   UNL     1      82.945 -10.553  27.166  0.00  0.00    +0.055 C 
ATOM     11  N   UNL     1      82.666 -11.027  28.337  0.00  0.00    -0.187 NA
BRANCH  11  12
ATOM     12  N   UNL     1      83.699 -11.057  29.231  0.00  0.00    -0.203 N 
ATOM     13  C   UNL     1      83.656 -11.951  30.294  0.00  0.00    +0.263 C 
ATOM     14  O   UNL     1      82.756 -12.759  30.504  0.00  0.00    -0.268 OA
ATOM     15  H   UNL     1      84.466 -10.450  29.124  0.00  0.00    +0.000 HD
BRANCH  13  16
ATOM     16  C   UNL     1      84.835 -11.924  31.208  0.00  0.00    +0.038 A 
ATOM     17  C   UNL     1      85.547 -13.081  31.556  0.00  0.00    -0.049 A 
ATOM     18  C   UNL     1      86.643 -12.999  32.421  0.00  0.00    -0.047 A 
ATOM     19  C   UNL     1      87.034 -11.762  32.931  0.00  0.00    +0.018 A 
ATOM     20  C   UNL     1      86.349 -10.602  32.576  0.00  0.00    -0.047 A 
ATOM     21  C   UNL     1      85.253 -10.684  31.710  0.00  0.00    -0.049 A 
ATOM     22 BR   UNL     1      88.512 -11.654  34.105  0.00  0.00    -0.050 Br
ENDBRANCH  13  16
ENDBRANCH  11  12
ENDBRANCH   9  10
BRANCH   7  23
ATOM     23  C   UNL     1      79.324  -8.736  24.271  0.00  0.00    +0.048 C 
BRANCH  23  24
ATOM     24  C   UNL     1      78.194  -8.518  25.246  0.00  0.00    -0.028 A 
ATOM     25  C   UNL     1      77.942  -7.243  25.774  0.00  0.00    -0.055 A 
ATOM     26  C   UNL     1      76.962  -7.060  26.751  0.00  0.00    -0.043 A 
ATOM     27  C   UNL     1      76.219  -8.150  27.199  0.00  0.00    +0.041 A 
ATOM     28  C   UNL     1      76.424  -9.414  26.653  0.00  0.00    -0.043 A 
ATOM     29  C   UNL     1      77.408  -9.598  25.678  0.00  0.00    -0.055 A 
ATOM     30 CL   UNL     1      75.056  -7.934  28.449  0.00  0.00    -0.084 Cl
ENDBRANCH  23  24
ENDBRANCH   7  23
TORSDOF 5
ENDMDL
MODEL 2
REMARK VINA RESULT:    -9.605      3.155      5.321
REMARK INTER + INTRA:         -13.370
REMARK INTER:                 -12.533
REMARK INTRA:                  -0.837
REMARK UNBOUND:                -0.958
REMARK  Name = 8c.sdf
REMARK  5 active torsions:
REMARK  status: ('A' for Active; 'I' for Inactive)
REMARK    1  A    between atoms: N_7  and  C_12
REMARK    2  A    between atoms: C_9  and  C_10
REMARK    3  A    between atoms: N_11  and  N_20
REMARK    4  A    between atoms: C_12  and  C_13
REMARK    5  A    between atoms: C_21  and  C_23
REMARK                            x       y       z     vdW  Elec       q    Type
REMARK                         _______ _______ _______ _____ _____    ______ ____
ROOT
ATOM      1  C   UNL     1      78.232  -5.346  31.769  0.00  0.00    -0.061 A 
ATOM      2  C   UNL     1      77.093  -5.116  31.005  0.00  0.00    -0.060 A 
ATOM      3  C   UNL     1      76.661  -6.051  30.060  0.00  0.00    -0.038 A 
ATOM      4  C   UNL     1      77.398  -7.238  29.908  0.00  0.00    +0.050 A 
ATOM      5  C   UNL     1      78.522  -7.512  30.697  0.00  0.00    +0.009 A 
ATOM      6  C   UNL     1      78.948  -6.537  31.629  0.00  0.00    -0.052 A 
ATOM      7  N   UNL     1      77.244  -8.308  29.047  0.00  0.00    -0.342 N 
ATOM      8  C   UNL     1      78.187  -9.266  29.321  0.00  0.00    +0.015 A 
ATOM      9  C   UNL     1      78.996  -8.814  30.346  0.00  0.00    +0.020 A 
ENDROOT
BRANCH   9  10
ATOM     10  C   UNL     1      80.100  -9.535  30.942  0.00  0.00    +0.055 C 
ATOM     11  N   UNL     1      81.277  -9.468  30.407  0.00  0.00    -0.187 NA
BRANCH  11  12
ATOM     12  N   UNL     1      82.257 -10.188  31.031  0.00  0.00    -0.203 N 
ATOM     13  C   UNL     1      83.500 -10.316  30.424  0.00  0.00    +0.263 C 
ATOM     14  O   UNL     1      83.820  -9.811  29.352  0.00  0.00    -0.268 OA
ATOM     15  H   UNL     1      82.083 -10.613  31.901  0.00  0.00    +0.000 HD
BRANCH  13  16
ATOM     16  C   UNL     1      84.511 -11.105  31.185  0.00  0.00    +0.038 A 
ATOM     17  C   UNL     1      84.712 -12.478  30.975  0.00  0.00    -0.049 A 
ATOM     18  C   UNL     1      85.672 -13.171  31.720  0.00  0.00    -0.047 A 
ATOM     19  C   UNL     1      86.438 -12.493  32.667  0.00  0.00    +0.018 A 
ATOM     20  C   UNL     1      86.263 -11.125  32.871  0.00  0.00    -0.047 A 
ATOM     21  C   UNL     1      85.303 -10.433  32.125  0.00  0.00    -0.049 A 
ATOM     22 BR   UNL     1      87.731 -13.432  33.677  0.00  0.00    -0.050 Br
ENDBRANCH  13  16
ENDBRANCH  11  12
ENDBRANCH   9  10
BRANCH   7  23
ATOM     23  C   UNL     1      76.298  -8.394  27.935  0.00  0.00    +0.048 C 
BRANCH  23  24
ATOM     24  C   UNL     1      76.971  -8.847  26.663  0.00  0.00    -0.028 A 
ATOM     25  C   UNL     1      76.770 -10.146  26.172  0.00  0.00    -0.055 A 
ATOM     26  C   UNL     1      77.470 -10.598  25.051  0.00  0.00    -0.043 A 
ATOM     27  C   UNL     1      78.368  -9.748  24.407  0.00  0.00    +0.041 A 
ATOM     28  C   UNL     1      78.544  -8.441  24.853  0.00  0.00    -0.043 A 
ATOM     29  C   UNL     1      77.847  -7.991  25.976  0.00  0.00    -0.055 A 
ATOM     30 CL   UNL     1      79.277 -10.327  23.066  0.00  0.00    -0.084 Cl
ENDBRANCH  23  24
ENDBRANCH   7  23
TORSDOF 5
ENDMDL
MODEL 3
REMARK VINA RESULT:    -9.452      4.592      8.533
REMARK INTER + INTRA:         -13.173
REMARK INTER:                 -12.700
REMARK INTRA:                  -0.473
REMARK UNBOUND:                -0.958
REMARK  Name = 8c.sdf
REMARK  5 active torsions:
REMARK  status: ('A' for Active; 'I' for Inactive)
REMARK    1  A    between atoms: N_7  and  C_12
REMARK    2  A    between atoms: C_9  and  C_10
REMARK    3  A    between atoms: N_11  and  N_20
REMARK    4  A    between atoms: C_12  and  C_13
REMARK    5  A    between atoms: C_21  and  C_23
REMARK                            x       y       z     vdW  Elec       q    Type
REMARK                         _______ _______ _______ _____ _____    ______ ____
ROOT
ATOM      1  C   UNL     1      82.462 -14.394  24.592  0.00  0.00    -0.061 A 
ATOM      2  C   UNL     1      83.806 -14.666  24.821  0.00  0.00    -0.060 A 
ATOM      3  C   UNL     1      84.614 -13.759  25.513  0.00  0.00    -0.038 A 
ATOM      4  C   UNL     1      84.035 -12.570  25.985  0.00  0.00    +0.050 A 
ATOM      5  C   UNL     1      82.673 -12.295  25.806  0.00  0.00    +0.009 A 
ATOM      6  C   UNL     1      81.885 -13.220  25.083  0.00  0.00    -0.052 A 
ATOM      7  N   UNL     1      84.576 -11.488  26.652  0.00  0.00    -0.342 N 
ATOM      8  C   UNL     1      83.588 -10.585  26.956  0.00  0.00    +0.015 A 
ATOM      9  C   UNL     1      82.388 -11.054  26.456  0.00  0.00    +0.020 A 
ENDROOT
BRANCH   9  10
ATOM     10  C   UNL     1      81.102 -10.403  26.580  0.00  0.00    +0.055 C 
ATOM     11  N   UNL     1      80.634 -10.117  27.752  0.00  0.00    -0.187 NA
BRANCH  11  12
ATOM     12  N   UNL     1      79.409  -9.513  27.774  0.00  0.00    -0.203 N 
ATOM     13  C   UNL     1      78.650  -9.551  28.938  0.00  0.00    +0.263 C 
ATOM     14  O   UNL     1      78.995 -10.079  29.991  0.00  0.00    -0.268 OA
ATOM     15  H   UNL     1      79.066  -9.055  26.973  0.00  0.00    +0.000 HD
BRANCH  13  16
ATOM     16  C   UNL     1      77.335  -8.850  28.874  0.00  0.00    +0.038 A 
ATOM     17  C   UNL     1      76.711  -8.525  27.660  0.00  0.00    -0.049 A 
ATOM     18  C   UNL     1      75.478  -7.864  27.657  0.00  0.00    -0.047 A 
ATOM     19  C   UNL     1      74.864  -7.535  28.865  0.00  0.00    +0.018 A 
ATOM     20  C   UNL     1      75.463  -7.872  30.078  0.00  0.00    -0.047 A 
ATOM     21  C   UNL     1      76.696  -8.534  30.080  0.00  0.00    -0.049 A 
ATOM     22 BR   UNL     1      73.201  -6.636  28.859  0.00  0.00    -0.050 Br
ENDBRANCH  13  16
ENDBRANCH  11  12
ENDBRANCH   9  10
BRANCH   7  23
ATOM     23  C   UNL     1      85.996 -11.258  26.919  0.00  0.00    +0.048 C 
BRANCH  23  24
ATOM     24  C   UNL     1      86.268 -11.098  28.395  0.00  0.00    -0.028 A 
ATOM     25  C   UNL     1      85.316 -11.500  29.344  0.00  0.00    -0.055 A 
ATOM     26  C   UNL     1      85.523 -11.261  30.703  0.00  0.00    -0.043 A 
ATOM     27  C   UNL     1      86.692 -10.628  31.124  0.00  0.00    +0.041 A 
ATOM     28  C   UNL     1      87.668 -10.266  30.200  0.00  0.00    -0.043 A 
ATOM     29  C   UNL     1      87.458 -10.501  28.839  0.00  0.00    -0.055 A 
ATOM     30 CL   UNL     1      86.918 -10.277  32.793  0.00  0.00    -0.084 Cl
ENDBRANCH  23  24
ENDBRANCH   7  23
TORSDOF 5
ENDMDL
