REMARK VINA RESULT:    -8.873      0.000      0.000
REMARK INTER + INTRA:         -11.266
REMARK INTER:                 -10.948
REMARK INTRA:                  -0.319
REMARK UNBOUND:                -0.319
REMARK  Name = 17a.sdf
REMARK  4 active torsions:
REMARK  status: ('A' for Active; 'I' for Inactive)
REMARK    1  A    between atoms: N_7  and  C_16
REMARK    2  A    between atoms: C_9  and  C_10
REMARK    3  A    between atoms: N_11  and  N_12
REMARK    4  A    between atoms: C_16  and  C_17
REMARK                            x       y       z     vdW  Elec       q    Type
REMARK                         _______ _______ _______ _____ _____    ______ ____
ROOT
ATOM      1  C   UNL     1     -13.860 -10.597  13.757  0.00  0.00    -0.061 A 
ATOM      2  C   UNL     1     -14.280 -10.177  15.013  0.00  0.00    -0.060 A 
ATOM      3  C   UNL     1     -15.407 -10.740  15.624  0.00  0.00    -0.038 A 
ATOM      4  C   UNL     1     -16.109 -11.744  14.934  0.00  0.00    +0.050 A 
ATOM      5  C   UNL     1     -15.668 -12.221  13.693  0.00  0.00    +0.009 A 
ATOM      6  C   UNL     1     -14.535 -11.625  13.095  0.00  0.00    -0.052 A 
ATOM      7  N   UNL     1     -17.273 -12.428  15.238  0.00  0.00    -0.342 N 
ATOM      8  C   UNL     1     -17.517 -13.374  14.274  0.00  0.00    +0.015 A 
ATOM      9  C   UNL     1     -16.538 -13.283  13.304  0.00  0.00    +0.020 A 
ENDROOT
BRANCH   9  10
ATOM     10  C   UNL     1     -16.434 -14.123  12.129  0.00  0.00    +0.055 C 
ATOM     11  N   UNL     1     -15.263 -14.455  11.694  0.00  0.00    -0.186 NA
BRANCH  11  12
ATOM     12  N   UNL     1     -15.254 -15.234  10.575  0.00  0.00    -0.191 N 
ATOM     13  C   UNL     1     -14.966 -14.716   9.337  0.00  0.00    +0.317 C 
ATOM     14  O   UNL     1     -15.007 -15.373   8.308  0.00  0.00    -0.251 OA
ATOM     15  N   UNL     1     -14.631 -13.400   9.353  0.00  0.00    -0.312 N 
ATOM     16  H   UNL     1     -15.459 -16.193  10.657  0.00  0.00    +0.000 HD
ATOM     17  H   UNL     1     -14.611 -12.908  10.204  0.00  0.00    +0.000 HD
ATOM     18  H   UNL     1     -14.408 -12.940   8.512  0.00  0.00    +0.000 HD
ENDBRANCH  11  12
ENDBRANCH   9  10
BRANCH   7  19
ATOM     19  C   UNL     1     -18.203 -12.138  16.331  0.00  0.00    +0.048 C 
BRANCH  19  20
ATOM     20  C   UNL     1     -17.712 -12.697  17.643  0.00  0.00    -0.028 A 
ATOM     21  C   UNL     1     -16.570 -13.510  17.682  0.00  0.00    -0.056 A 
ATOM     22  C   UNL     1     -16.199 -14.156  18.862  0.00  0.00    -0.047 A 
ATOM     23  C   UNL     1     -16.956 -13.975  20.016  0.00  0.00    +0.018 A 
ATOM     24  C   UNL     1     -18.046 -13.108  20.016  0.00  0.00    -0.047 A 
ATOM     25  C   UNL     1     -18.421 -12.467  18.833  0.00  0.00    -0.056 A 
ATOM     26 BR   UNL     1     -16.531 -14.952  21.577  0.00  0.00    -0.050 Br
ENDBRANCH  19  20
ENDBRANCH   7  19
TORSDOF 4
