REMARK VINA RESULT:    -8.648      1.845      2.628
REMARK INTER + INTRA:         -11.007
REMARK INTER:                 -10.199
REMARK INTRA:                  -0.808
REMARK UNBOUND:                -0.337
REMARK  Name = 17c.sdf
REMARK  4 active torsions:
REMARK  status: ('A' for Active; 'I' for Inactive)
REMARK    1  A    between atoms: N_7  and  C_16
REMARK    2  A    between atoms: C_9  and  C_10
REMARK    3  A    between atoms: N_11  and  N_12
REMARK    4  A    between atoms: C_16  and  C_17
REMARK                            x       y       z     vdW  Elec       q    Type
REMARK                         _______ _______ _______ _____ _____    ______ ____
ROOT
ATOM      1  C   UNL     1     -19.154 -10.883  12.284  0.00  0.00    -0.061 A 
ATOM      2  C   UNL     1     -19.091 -10.023  13.373  0.00  0.00    -0.060 A 
ATOM      3  C   UNL     1     -18.027 -10.084  14.285  0.00  0.00    -0.038 A 
ATOM      4  C   UNL     1     -17.034 -11.062  14.094  0.00  0.00    +0.050 A 
ATOM      5  C   UNL     1     -17.052 -11.901  12.970  0.00  0.00    +0.009 A 
ATOM      6  C   UNL     1     -18.129 -11.805  12.059  0.00  0.00    -0.052 A 
ATOM      7  N   UNL     1     -15.937 -11.432  14.859  0.00  0.00    -0.342 N 
ATOM      8  C   UNL     1     -15.229 -12.406  14.195  0.00  0.00    +0.015 A 
ATOM      9  C   UNL     1     -15.877 -12.712  13.015  0.00  0.00    +0.020 A 
ENDROOT
BRANCH   9  10
ATOM     10  C   UNL     1     -15.434 -13.678  12.029  0.00  0.00    +0.055 C 
ATOM     11  N   UNL     1     -15.123 -13.266  10.843  0.00  0.00    -0.186 NA
BRANCH  11  12
ATOM     12  N   UNL     1     -14.750 -14.237   9.955  0.00  0.00    -0.191 N 
ATOM     13  C   UNL     1     -15.562 -14.605   8.903  0.00  0.00    +0.317 C 
ATOM     14  O   UNL     1     -15.243 -15.443   8.083  0.00  0.00    -0.251 OA
ATOM     15  N   UNL     1     -16.746 -13.955   8.879  0.00  0.00    -0.312 N 
ATOM     16  H   UNL     1     -13.880 -14.684  10.070  0.00  0.00    +0.000 HD
ATOM     17  H   UNL     1     -16.953 -13.284   9.568  0.00  0.00    +0.000 HD
ATOM     18  H   UNL     1     -17.402 -14.153   8.172  0.00  0.00    +0.000 HD
ENDBRANCH  11  12
ENDBRANCH   9  10
BRANCH   7  19
ATOM     19  C   UNL     1     -15.617 -11.010  16.227  0.00  0.00    +0.048 C 
BRANCH  19  20
ATOM     20  C   UNL     1     -16.523 -11.654  17.248  0.00  0.00    -0.028 A 
ATOM     21  C   UNL     1     -17.509 -10.894  17.894  0.00  0.00    -0.055 A 
ATOM     22  C   UNL     1     -18.201 -11.414  18.989  0.00  0.00    -0.043 A 
ATOM     23  C   UNL     1     -17.941 -12.713  19.417  0.00  0.00    +0.041 A 
ATOM     24  C   UNL     1     -17.053 -13.521  18.713  0.00  0.00    -0.043 A 
ATOM     25  C   UNL     1     -16.346 -12.995  17.629  0.00  0.00    -0.055 A 
ATOM     26 CL   UNL     1     -18.677 -13.299  20.857  0.00  0.00    -0.084 Cl
ENDBRANCH  19  20
ENDBRANCH   7  19
TORSDOF 4
