MODEL 1
REMARK VINA RESULT:    -8.682      0.000      0.000
REMARK INTER + INTRA:          -9.926
REMARK INTER:                 -10.205
REMARK INTRA:                   0.279
REMARK UNBOUND:                 0.279
REMARK  Name = 17d.sdf
REMARK  3 active torsions:
REMARK  status: ('A' for Active; 'I' for Inactive)
REMARK    1  A    between atoms: C_9  and  C_10
REMARK    2  A    between atoms: N_11  and  N_12
REMARK    3  A    between atoms: C_16  and  C_17
REMARK                            x       y       z     vdW  Elec       q    Type
REMARK                         _______ _______ _______ _____ _____    ______ ____
ROOT
ATOM      1  C   UNL     1     -18.966  -9.236  13.543  0.00  0.00    -0.061 A 
ATOM      2  C   UNL     1     -19.747  -9.198  14.691  0.00  0.00    -0.060 A 
ATOM      3  C   UNL     1     -19.541 -10.107  15.731  0.00  0.00    -0.037 A 
ATOM      4  C   UNL     1     -18.522 -11.069  15.592  0.00  0.00    +0.057 A 
ATOM      5  C   UNL     1     -17.717 -11.120  14.444  0.00  0.00    +0.009 A 
ATOM      6  C   UNL     1     -17.953 -10.189  13.408  0.00  0.00    -0.052 A 
ATOM      7  N   UNL     1     -18.069 -12.047  16.478  0.00  0.00    -0.282 N 
ATOM      8  C   UNL     1     -17.046 -12.733  15.854  0.00  0.00    +0.023 A 
ATOM      9  C   UNL     1     -16.783 -12.180  14.620  0.00  0.00    +0.020 A 
ATOM     10  C   UNL     1     -18.536 -12.311  17.789  0.00  0.00    +0.263 C 
ATOM     11  O   UNL     1     -19.677 -11.964  18.083  0.00  0.00    -0.267 OA
ENDROOT
BRANCH  10  12
ATOM     12  C   UNL     1     -17.704 -12.986  18.819  0.00  0.00    +0.040 A 
ATOM     13  C   UNL     1     -16.544 -13.680  18.446  0.00  0.00    -0.049 A 
ATOM     14  C   UNL     1     -15.791 -14.350  19.406  0.00  0.00    -0.061 A 
ATOM     15  C   UNL     1     -16.176 -14.302  20.745  0.00  0.00    -0.062 A 
ATOM     16  C   UNL     1     -17.303 -13.572  21.127  0.00  0.00    -0.061 A 
ATOM     17  C   UNL     1     -18.067 -12.906  20.167  0.00  0.00    -0.049 A 
ENDBRANCH  10  12
BRANCH   9  18
ATOM     18  C   UNL     1     -15.745 -12.642  13.721  0.00  0.00    +0.055 C 
ATOM     19  N   UNL     1     -16.108 -13.081  12.560  0.00  0.00    -0.186 NA
BRANCH  19  20
ATOM     20  N   UNL     1     -15.104 -13.509  11.738  0.00  0.00    -0.191 N 
ATOM     21  C   UNL     1     -15.164 -14.734  11.118  0.00  0.00    +0.317 C 
ATOM     22  O   UNL     1     -14.314 -15.126  10.331  0.00  0.00    -0.251 OA
ATOM     23  N   UNL     1     -16.244 -15.481  11.468  0.00  0.00    -0.312 N 
ATOM     24  H   UNL     1     -14.323 -12.929  11.587  0.00  0.00    +0.000 HD
ATOM     25  H   UNL     1     -16.903 -15.124  12.106  0.00  0.00    +0.000 HD
ATOM     26  H   UNL     1     -16.367 -16.377  11.083  0.00  0.00    +0.000 HD
ENDBRANCH  19  20
ENDBRANCH   9  18
TORSDOF 3
ENDMDL
MODEL 2
REMARK VINA RESULT:    -8.498      3.435      5.872
REMARK INTER + INTRA:          -9.710
REMARK INTER:                  -9.174
REMARK INTRA:                  -0.536
REMARK UNBOUND:                 0.279
REMARK  Name = 17d.sdf
REMARK  3 active torsions:
REMARK  status: ('A' for Active; 'I' for Inactive)
REMARK    1  A    between atoms: C_9  and  C_10
REMARK    2  A    between atoms: N_11  and  N_12
REMARK    3  A    between atoms: C_16  and  C_17
REMARK                            x       y       z     vdW  Elec       q    Type
REMARK                         _______ _______ _______ _____ _____    ______ ____
ROOT
ATOM      1  C   UNL     1     -16.200 -14.579   9.259  0.00  0.00    -0.061 A 
ATOM      2  C   UNL     1     -15.242 -14.965  10.189  0.00  0.00    -0.060 A 
ATOM      3  C   UNL     1     -15.183 -14.365  11.449  0.00  0.00    -0.037 A 
ATOM      4  C   UNL     1     -16.114 -13.357  11.760  0.00  0.00    +0.057 A 
ATOM      5  C   UNL     1     -17.094 -12.958  10.838  0.00  0.00    +0.009 A 
ATOM      6  C   UNL     1     -17.127 -13.581   9.570  0.00  0.00    -0.052 A 
ATOM      7  N   UNL     1     -16.316 -12.638  12.938  0.00  0.00    -0.282 N 
ATOM      8  C   UNL     1     -17.361 -11.762  12.720  0.00  0.00    +0.023 A 
ATOM      9  C   UNL     1     -17.881 -11.945  11.457  0.00  0.00    +0.020 A 
ATOM     10  C   UNL     1     -15.611 -12.763  14.160  0.00  0.00    +0.263 C 
ATOM     11  O   UNL     1     -14.474 -13.228  14.133  0.00  0.00    -0.267 OA
ENDROOT
BRANCH  10  12
ATOM     12  C   UNL     1     -16.188 -12.358  15.469  0.00  0.00    +0.040 A 
ATOM     13  C   UNL     1     -15.855 -11.118  16.032  0.00  0.00    -0.049 A 
ATOM     14  C   UNL     1     -16.360 -10.758  17.279  0.00  0.00    -0.061 A 
ATOM     15  C   UNL     1     -17.224 -11.622  17.951  0.00  0.00    -0.062 A 
ATOM     16  C   UNL     1     -17.596 -12.836  17.370  0.00  0.00    -0.061 A 
ATOM     17  C   UNL     1     -17.085 -13.206  16.125  0.00  0.00    -0.049 A 
ENDBRANCH  10  12
BRANCH   9  18
ATOM     18  C   UNL     1     -19.008 -11.209  10.922  0.00  0.00    +0.055 C 
ATOM     19  N   UNL     1     -19.068  -9.940  11.166  0.00  0.00    -0.186 NA
BRANCH  19  20
ATOM     20  N   UNL     1     -20.144  -9.277  10.647  0.00  0.00    -0.191 N 
ATOM     21  C   UNL     1     -20.274  -7.916  10.781  0.00  0.00    +0.317 C 
ATOM     22  O   UNL     1     -21.192  -7.281  10.282  0.00  0.00    -0.251 OA
ATOM     23  N   UNL     1     -19.303  -7.337  11.534  0.00  0.00    -0.312 N 
ATOM     24  H   UNL     1     -20.838  -9.785  10.167  0.00  0.00    +0.000 HD
ATOM     25  H   UNL     1     -18.582  -7.888  11.916  0.00  0.00    +0.000 HD
ATOM     26  H   UNL     1     -19.318  -6.366  11.694  0.00  0.00    +0.000 HD
ENDBRANCH  19  20
ENDBRANCH   9  18
TORSDOF 3
ENDMDL
MODEL 3
REMARK VINA RESULT:    -8.344      3.464      6.010
REMARK INTER + INTRA:          -9.529
REMARK INTER:                  -9.148
REMARK INTRA:                  -0.382
REMARK UNBOUND:                 0.279
REMARK  Name = 17d.sdf
REMARK  3 active torsions:
REMARK  status: ('A' for Active; 'I' for Inactive)
REMARK    1  A    between atoms: C_9  and  C_10
REMARK    2  A    between atoms: N_11  and  N_12
REMARK    3  A    between atoms: C_16  and  C_17
REMARK                            x       y       z     vdW  Elec       q    Type
REMARK                         _______ _______ _______ _____ _____    ______ ____
ROOT
ATOM      1  C   UNL     1     -15.667 -14.400  19.559  0.00  0.00    -0.061 A 
ATOM      2  C   UNL     1     -16.307 -14.596  20.776  0.00  0.00    -0.060 A 
ATOM      3  C   UNL     1     -17.535 -13.990  21.047  0.00  0.00    -0.037 A 
ATOM      4  C   UNL     1     -18.115 -13.171  20.059  0.00  0.00    +0.057 A 
ATOM      5  C   UNL     1     -17.489 -12.966  18.820  0.00  0.00    +0.009 A 
ATOM      6  C   UNL     1     -16.245 -13.590  18.577  0.00  0.00    -0.052 A 
ATOM      7  N   UNL     1     -19.336 -12.498  20.039  0.00  0.00    -0.282 N 
ATOM      8  C   UNL     1     -19.427 -11.833  18.832  0.00  0.00    +0.023 A 
ATOM      9  C   UNL     1     -18.330 -12.115  18.048  0.00  0.00    +0.020 A 
ATOM     10  C   UNL     1     -20.334 -12.484  21.045  0.00  0.00    +0.263 C 
ATOM     11  O   UNL     1     -20.000 -12.728  22.201  0.00  0.00    -0.267 OA
ENDROOT
BRANCH  10  12
ATOM     12  C   UNL     1     -21.762 -12.186  20.759  0.00  0.00    +0.040 A 
ATOM     13  C   UNL     1     -22.415 -11.145  21.433  0.00  0.00    -0.049 A 
ATOM     14  C   UNL     1     -23.765 -10.897  21.198  0.00  0.00    -0.061 A 
ATOM     15  C   UNL     1     -24.457 -11.667  20.264  0.00  0.00    -0.062 A 
ATOM     16  C   UNL     1     -23.798 -12.673  19.555  0.00  0.00    -0.061 A 
ATOM     17  C   UNL     1     -22.447 -12.932  19.794  0.00  0.00    -0.049 A 
ENDBRANCH  10  12
BRANCH   9  18
ATOM     18  C   UNL     1     -18.129 -11.605  16.708  0.00  0.00    +0.055 C 
ATOM     19  N   UNL     1     -17.174 -10.751  16.526  0.00  0.00    -0.186 NA
BRANCH  19  20
ATOM     20  N   UNL     1     -17.013 -10.290  15.250  0.00  0.00    -0.191 N 
ATOM     21  C   UNL     1     -15.774 -10.256  14.657  0.00  0.00    +0.317 C 
ATOM     22  O   UNL     1     -15.599  -9.905  13.498  0.00  0.00    -0.251 OA
ATOM     23  N   UNL     1     -14.756 -10.631  15.474  0.00  0.00    -0.312 N 
ATOM     24  H   UNL     1     -17.799  -9.976  14.747  0.00  0.00    +0.000 HD
ATOM     25  H   UNL     1     -14.945 -10.907  16.400  0.00  0.00    +0.000 HD
ATOM     26  H   UNL     1     -13.831 -10.629  15.140  0.00  0.00    +0.000 HD
ENDBRANCH  19  20
ENDBRANCH   9  18
TORSDOF 3
ENDMDL
