REMARK  Name = 
REMARK  3 active torsions:
REMARK  status: ('A' for Active; 'I' for Inactive)
REMARK    1  A    between atoms: C_9  and  C_10
REMARK    2  A    between atoms: N_11  and  N_12
REMARK    3  A    between atoms: C_16  and  C_17
REMARK                            x       y       z     vdW  Elec       q    Type
REMARK                         _______ _______ _______ _____ _____    ______ ____
ROOT
ATOM      1  C   UNL     1      -2.214  -0.620   0.005  0.00  0.00    +0.000 A 
ATOM      2  C   UNL     1      -2.193   0.769   0.012  0.00  0.00    +0.000 A 
ATOM      3  C   UNL     1      -0.983   1.466   0.025  0.00  0.00    +0.000 A 
ATOM      4  C   UNL     1       0.219   0.733   0.035  0.00  0.00    +0.000 A 
ATOM      5  C   UNL     1       0.219  -0.671   0.023  0.00  0.00    +0.000 A 
ATOM      6  C   UNL     1      -1.020  -1.348   0.010  0.00  0.00    +0.000 A 
ATOM      7  N   UNL     1       1.546   1.160  -0.007  0.00  0.00    +0.000 N 
ATOM      8  C   UNL     1       2.350   0.036   0.031  0.00  0.00    +0.000 A 
ATOM      9  C   UNL     1       1.579  -1.106   0.027  0.00  0.00    +0.000 A 
ATOM     10  C   UNL     1       2.025   2.491  -0.090  0.00  0.00    +0.000 C 
ATOM     11  O   UNL     1       1.304   3.402   0.309  0.00  0.00    +0.000 OA
ENDROOT
BRANCH  10  12
ATOM     12  C   UNL     1       3.367   2.827  -0.639  0.00  0.00    +0.000 A 
ATOM     13  C   UNL     1       3.856   2.144  -1.763  0.00  0.00    +0.000 A 
ATOM     14  C   UNL     1       5.140   2.407  -2.238  0.00  0.00    +0.000 A 
ATOM     15  C   UNL     1       5.921   3.375  -1.611  0.00  0.00    +0.000 A 
ATOM     16  C   UNL     1       5.418   4.102  -0.530  0.00  0.00    +0.000 A 
ATOM     17  C   UNL     1       4.134   3.834  -0.045  0.00  0.00    +0.000 A 
ATOM     18 BR   UNL     1       7.680   3.692  -2.224  0.00  0.00    +0.000 Br
ENDBRANCH  10  12
BRANCH   9  19
ATOM     19  C   UNL     1       2.102  -2.464   0.029  0.00  0.00    +0.000 C 
ATOM     20  N   UNL     1       3.387  -2.609   0.054  0.00  0.00    +0.000 NA
BRANCH  20  21
ATOM     21  N   UNL     1       3.958  -3.850   0.046  0.00  0.00    +0.000 N 
ATOM     22  C   UNL     1       3.350  -5.085   0.006  0.00  0.00    +0.000 C 
ATOM     23  O   UNL     1       2.152  -5.331  -0.003  0.00  0.00    +0.000 OA
ATOM     24  N   UNL     1       4.252  -6.109  -0.060  0.00  0.00    +0.000 N 
ATOM     25  H   UNL     1       4.942  -3.864   0.072  0.00  0.00    +0.000 HD
ATOM     26  H   UNL     1       5.217  -5.915  -0.053  0.00  0.00    +0.000 HD
ATOM     27  H   UNL     1       3.936  -7.040  -0.115  0.00  0.00    +0.000 HD
ENDBRANCH  20  21
ENDBRANCH   9  19
TORSDOF 3
