MODEL 1
REMARK VINA RESULT:    -8.382      0.000      0.000
REMARK INTER + INTRA:         -11.157
REMARK INTER:                 -10.342
REMARK INTRA:                  -0.815
REMARK UNBOUND:                -0.815
REMARK  Name = 
REMARK  4 active torsions:
REMARK  status: ('A' for Active; 'I' for Inactive)
REMARK    1  A    between atoms: N_7  and  C_16
REMARK    2  A    between atoms: C_9  and  C_10
REMARK    3  A    between atoms: N_11  and  N_12
REMARK    4  A    between atoms: C_16  and  C_17
REMARK                            x       y       z     vdW  Elec       q    Type
REMARK                         _______ _______ _______ _____ _____    ______ ____
ROOT
ATOM      1  C   UNL     1     -19.469 -10.888  12.863  0.00  0.00    +0.000 A 
ATOM      2  C   UNL     1     -19.503 -10.219  14.083  0.00  0.00    +0.000 A 
ATOM      3  C   UNL     1     -18.469 -10.367  15.012  0.00  0.00    +0.000 A 
ATOM      4  C   UNL     1     -17.382 -11.195  14.677  0.00  0.00    +0.000 A 
ATOM      5  C   UNL     1     -17.321 -11.873  13.450  0.00  0.00    +0.000 A 
ATOM      6  C   UNL     1     -18.394 -11.723  12.544  0.00  0.00    +0.000 A 
ATOM      7  N   UNL     1     -16.234 -11.526  15.376  0.00  0.00    +0.000 N 
ATOM      8  C   UNL     1     -15.422 -12.294  14.584  0.00  0.00    +0.000 A 
ATOM      9  C   UNL     1     -16.084 -12.606  13.417  0.00  0.00    +0.000 A 
ENDROOT
BRANCH   9  10
ATOM     10  C   UNL     1     -15.571 -13.495  12.386  0.00  0.00    +0.000 C 
ATOM     11  N   UNL     1     -15.331 -12.991  11.215  0.00  0.00    +0.000 NA
BRANCH  11  12
ATOM     12  N   UNL     1     -14.845 -13.758  10.184  0.00  0.00    +0.000 N 
ATOM     13  C   UNL     1     -15.522 -14.658   9.405  0.00  0.00    +0.000 C 
ATOM     14  O   UNL     1     -16.690 -14.999   9.490  0.00  0.00    +0.000 OA
ATOM     15  N   UNL     1     -14.755 -15.190   8.405  0.00  0.00    +0.000 N 
ATOM     16  H   UNL     1     -13.888 -13.646   9.980  0.00  0.00    +0.000 HD
ATOM     17  H   UNL     1     -13.809 -14.930   8.318  0.00  0.00    +0.000 HD
ATOM     18  H   UNL     1     -15.147 -15.834   7.772  0.00  0.00    +0.000 HD
ENDBRANCH  11  12
ENDBRANCH   9  10
BRANCH   7  19
ATOM     19  C   UNL     1     -15.863 -11.103  16.726  0.00  0.00    +0.000 C 
BRANCH  19  20
ATOM     20  C   UNL     1     -16.627 -11.856  17.795  0.00  0.00    +0.000 A 
ATOM     21  C   UNL     1     -17.706 -11.266  18.480  0.00  0.00    +0.000 A 
ATOM     22  C   UNL     1     -18.352 -11.947  19.514  0.00  0.00    +0.000 A 
ATOM     23  C   UNL     1     -17.951 -13.235  19.840  0.00  0.00    +0.000 A 
ATOM     24  C   UNL     1     -16.935 -13.865  19.133  0.00  0.00    +0.000 A 
ATOM     25  C   UNL     1     -16.273 -13.178  18.112  0.00  0.00    +0.000 A 
ATOM     26  F   UNL     1     -18.550 -13.879  20.851  0.00  0.00    +0.000 F 
ENDBRANCH  19  20
ENDBRANCH   7  19
TORSDOF 4
ENDMDL
MODEL 2
REMARK VINA RESULT:    -8.136      1.778      2.174
REMARK INTER + INTRA:         -10.854
REMARK INTER:                 -10.202
REMARK INTRA:                  -0.652
REMARK UNBOUND:                -0.815
REMARK  Name = 
REMARK  4 active torsions:
REMARK  status: ('A' for Active; 'I' for Inactive)
REMARK    1  A    between atoms: N_7  and  C_16
REMARK    2  A    between atoms: C_9  and  C_10
REMARK    3  A    between atoms: N_11  and  N_12
REMARK    4  A    between atoms: C_16  and  C_17
REMARK                            x       y       z     vdW  Elec       q    Type
REMARK                         _______ _______ _______ _____ _____    ______ ____
ROOT
ATOM      1  C   UNL     1     -21.690 -11.794  14.612  0.00  0.00    +0.000 A 
ATOM      2  C   UNL     1     -21.721 -11.346  15.929  0.00  0.00    +0.000 A 
ATOM      3  C   UNL     1     -20.541 -11.190  16.663  0.00  0.00    +0.000 A 
ATOM      4  C   UNL     1     -19.318 -11.478  16.030  0.00  0.00    +0.000 A 
ATOM      5  C   UNL     1     -19.260 -11.923  14.701  0.00  0.00    +0.000 A 
ATOM      6  C   UNL     1     -20.471 -12.095  13.996  0.00  0.00    +0.000 A 
ATOM      7  N   UNL     1     -18.013 -11.416  16.489  0.00  0.00    +0.000 N 
ATOM      8  C   UNL     1     -17.153 -11.702  15.462  0.00  0.00    +0.000 A 
ATOM      9  C   UNL     1     -17.875 -12.103  14.360  0.00  0.00    +0.000 A 
ENDROOT
BRANCH   9  10
ATOM     10  C   UNL     1     -17.290 -12.587  13.118  0.00  0.00    +0.000 C 
ATOM     11  N   UNL     1     -16.237 -13.341  13.198  0.00  0.00    +0.000 NA
BRANCH  11  12
ATOM     12  N   UNL     1     -15.620 -13.841  12.077  0.00  0.00    +0.000 N 
ATOM     13  C   UNL     1     -15.841 -15.039  11.451  0.00  0.00    +0.000 C 
ATOM     14  O   UNL     1     -16.603 -15.932  11.781  0.00  0.00    +0.000 OA
ATOM     15  N   UNL     1     -15.113 -15.189  10.302  0.00  0.00    +0.000 N 
ATOM     16  H   UNL     1     -14.931 -13.265  11.673  0.00  0.00    +0.000 HD
ATOM     17  H   UNL     1     -14.491 -14.481  10.017  0.00  0.00    +0.000 HD
ATOM     18  H   UNL     1     -15.210 -16.005   9.761  0.00  0.00    +0.000 HD
ENDBRANCH  11  12
ENDBRANCH   9  10
BRANCH   7  19
ATOM     19  C   UNL     1     -17.560 -11.051  17.831  0.00  0.00    +0.000 C 
BRANCH  19  20
ATOM     20  C   UNL     1     -17.321 -12.263  18.708  0.00  0.00    +0.000 A 
ATOM     21  C   UNL     1     -18.058 -12.471  19.889  0.00  0.00    +0.000 A 
ATOM     22  C   UNL     1     -17.775 -13.554  20.724  0.00  0.00    +0.000 A 
ATOM     23  C   UNL     1     -16.783 -14.455  20.363  0.00  0.00    +0.000 A 
ATOM     24  C   UNL     1     -16.089 -14.310  19.168  0.00  0.00    +0.000 A 
ATOM     25  C   UNL     1     -16.358 -13.216  18.341  0.00  0.00    +0.000 A 
ATOM     26  F   UNL     1     -16.490 -15.478  21.177  0.00  0.00    +0.000 F 
ENDBRANCH  19  20
ENDBRANCH   7  19
TORSDOF 4
ENDMDL
MODEL 3
REMARK VINA RESULT:    -7.740      3.533      6.025
REMARK INTER + INTRA:         -10.366
REMARK INTER:                  -9.561
REMARK INTRA:                  -0.804
REMARK UNBOUND:                -0.815
REMARK  Name = 
REMARK  4 active torsions:
REMARK  status: ('A' for Active; 'I' for Inactive)
REMARK    1  A    between atoms: N_7  and  C_16
REMARK    2  A    between atoms: C_9  and  C_10
REMARK    3  A    between atoms: N_11  and  N_12
REMARK    4  A    between atoms: C_16  and  C_17
REMARK                            x       y       z     vdW  Elec       q    Type
REMARK                         _______ _______ _______ _____ _____    ______ ____
ROOT
ATOM      1  C   UNL     1     -16.224 -14.779  20.766  0.00  0.00    +0.000 A 
ATOM      2  C   UNL     1     -17.208 -14.301  21.626  0.00  0.00    +0.000 A 
ATOM      3  C   UNL     1     -18.127 -13.336  21.201  0.00  0.00    +0.000 A 
ATOM      4  C   UNL     1     -18.045 -12.873  19.875  0.00  0.00    +0.000 A 
ATOM      5  C   UNL     1     -17.067 -13.346  18.986  0.00  0.00    +0.000 A 
ATOM      6  C   UNL     1     -16.138 -14.301  19.454  0.00  0.00    +0.000 A 
ATOM      7  N   UNL     1     -18.802 -11.945  19.181  0.00  0.00    +0.000 N 
ATOM      8  C   UNL     1     -18.395 -11.908  17.873  0.00  0.00    +0.000 A 
ATOM      9  C   UNL     1     -17.273 -12.692  17.722  0.00  0.00    +0.000 A 
ENDROOT
BRANCH   9  10
ATOM     10  C   UNL     1     -16.503 -12.807  16.492  0.00  0.00    +0.000 C 
ATOM     11  N   UNL     1     -16.473 -11.782  15.698  0.00  0.00    +0.000 NA
BRANCH  11  12
ATOM     12  N   UNL     1     -15.771 -11.803  14.517  0.00  0.00    +0.000 N 
ATOM     13  C   UNL     1     -15.466 -10.753  13.693  0.00  0.00    +0.000 C 
ATOM     14  O   UNL     1     -15.788  -9.583  13.813  0.00  0.00    +0.000 OA
ATOM     15  N   UNL     1     -14.675 -11.110  12.635  0.00  0.00    +0.000 N 
ATOM     16  H   UNL     1     -15.448 -12.687  14.227  0.00  0.00    +0.000 HD
ATOM     17  H   UNL     1     -14.404 -12.049  12.518  0.00  0.00    +0.000 HD
ATOM     18  H   UNL     1     -14.378 -10.429  11.990  0.00  0.00    +0.000 HD
ENDBRANCH  11  12
ENDBRANCH   9  10
BRANCH   7  19
ATOM     19  C   UNL     1     -19.913 -11.143  19.693  0.00  0.00    +0.000 C 
BRANCH  19  20
ATOM     20  C   UNL     1     -19.455  -9.803  20.231  0.00  0.00    +0.000 A 
ATOM     21  C   UNL     1     -18.836  -9.689  21.490  0.00  0.00    +0.000 A 
ATOM     22  C   UNL     1     -18.488  -8.437  22.002  0.00  0.00    +0.000 A 
ATOM     23  C   UNL     1     -18.718  -7.299  21.242  0.00  0.00    +0.000 A 
ATOM     24  C   UNL     1     -19.264  -7.391  19.968  0.00  0.00    +0.000 A 
ATOM     25  C   UNL     1     -19.632  -8.641  19.462  0.00  0.00    +0.000 A 
ATOM     26  F   UNL     1     -18.411  -6.095  21.744  0.00  0.00    +0.000 F 
ENDBRANCH  19  20
ENDBRANCH   7  19
TORSDOF 4
ENDMDL
