MODEL 1
REMARK VINA RESULT:    -8.312      0.000      0.000
REMARK INTER + INTRA:         -10.997
REMARK INTER:                 -10.256
REMARK INTRA:                  -0.741
REMARK UNBOUND:                -0.741
REMARK  Name = 
REMARK  4 active torsions:
REMARK  status: ('A' for Active; 'I' for Inactive)
REMARK    1  A    between atoms: N_7  and  C_16
REMARK    2  A    between atoms: C_9  and  C_10
REMARK    3  A    between atoms: N_11  and  N_12
REMARK    4  A    between atoms: C_16  and  C_17
REMARK                            x       y       z     vdW  Elec       q    Type
REMARK                         _______ _______ _______ _____ _____    ______ ____
ROOT
ATOM      1  C   UNL     1     -19.370 -10.933  12.644  0.00  0.00    +0.000 A 
ATOM      2  C   UNL     1     -19.349 -10.204  13.828  0.00  0.00    +0.000 A 
ATOM      3  C   UNL     1     -18.269 -10.301  14.711  0.00  0.00    +0.000 A 
ATOM      4  C   UNL     1     -17.196 -11.141  14.363  0.00  0.00    +0.000 A 
ATOM      5  C   UNL     1     -17.192 -11.883  13.172  0.00  0.00    +0.000 A 
ATOM      6  C   UNL     1     -18.305 -11.777  12.309  0.00  0.00    +0.000 A 
ATOM      7  N   UNL     1     -16.020 -11.435  15.024  0.00  0.00    +0.000 N 
ATOM      8  C   UNL     1     -15.247 -12.261  14.249  0.00  0.00    +0.000 A 
ATOM      9  C   UNL     1     -15.962 -12.615  13.122  0.00  0.00    +0.000 A 
ENDROOT
BRANCH   9  10
ATOM     10  C   UNL     1     -15.506 -13.549  12.104  0.00  0.00    +0.000 C 
ATOM     11  N   UNL     1     -15.183 -13.066  10.947  0.00  0.00    +0.000 NA
BRANCH  11  12
ATOM     12  N   UNL     1     -14.744 -13.876   9.937  0.00  0.00    +0.000 N 
ATOM     13  C   UNL     1     -15.471 -14.688   9.100  0.00  0.00    +0.000 C 
ATOM     14  O   UNL     1     -16.679 -14.881   9.094  0.00  0.00    +0.000 OA
ATOM     15  N   UNL     1     -14.683 -15.314   8.175  0.00  0.00    +0.000 N 
ATOM     16  H   UNL     1     -13.770 -13.879   9.789  0.00  0.00    +0.000 HD
ATOM     17  H   UNL     1     -13.710 -15.162   8.175  0.00  0.00    +0.000 HD
ATOM     18  H   UNL     1     -15.088 -15.915   7.509  0.00  0.00    +0.000 HD
ENDBRANCH  11  12
ENDBRANCH   9  10
BRANCH   7  19
ATOM     19  C   UNL     1     -15.604 -10.938  16.333  0.00  0.00    +0.000 C 
BRANCH  19  20
ATOM     20  C   UNL     1     -16.467 -11.485  17.449  0.00  0.00    +0.000 A 
ATOM     21  C   UNL     1     -17.428 -10.682  18.087  0.00  0.00    +0.000 A 
ATOM     22  C   UNL     1     -18.181 -11.177  19.156  0.00  0.00    +0.000 A 
ATOM     23  C   UNL     1     -17.995 -12.489  19.581  0.00  0.00    +0.000 A 
ATOM     24  C   UNL     1     -17.087 -13.318  18.925  0.00  0.00    +0.000 A 
ATOM     25  C   UNL     1     -16.328 -12.818  17.863  0.00  0.00    +0.000 A 
ATOM     26  I   UNL     1     -19.057 -13.204  21.218  0.00  0.00    +0.000 I 
ENDBRANCH  19  20
ENDBRANCH   7  19
TORSDOF 4
ENDMDL
MODEL 2
REMARK VINA RESULT:    -8.114      1.639      2.649
REMARK INTER + INTRA:         -10.752
REMARK INTER:                 -10.283
REMARK INTRA:                  -0.469
REMARK UNBOUND:                -0.741
REMARK  Name = 
REMARK  4 active torsions:
REMARK  status: ('A' for Active; 'I' for Inactive)
REMARK    1  A    between atoms: N_7  and  C_16
REMARK    2  A    between atoms: C_9  and  C_10
REMARK    3  A    between atoms: N_11  and  N_12
REMARK    4  A    between atoms: C_16  and  C_17
REMARK                            x       y       z     vdW  Elec       q    Type
REMARK                         _______ _______ _______ _____ _____    ______ ____
ROOT
ATOM      1  C   UNL     1     -13.912 -10.622  13.868  0.00  0.00    +0.000 A 
ATOM      2  C   UNL     1     -14.402 -10.272  15.122  0.00  0.00    +0.000 A 
ATOM      3  C   UNL     1     -15.676 -10.675  15.532  0.00  0.00    +0.000 A 
ATOM      4  C   UNL     1     -16.444 -11.459  14.652  0.00  0.00    +0.000 A 
ATOM      5  C   UNL     1     -15.969 -11.829  13.385  0.00  0.00    +0.000 A 
ATOM      6  C   UNL     1     -14.685 -11.392  12.992  0.00  0.00    +0.000 A 
ATOM      7  N   UNL     1     -17.711 -11.991  14.778  0.00  0.00    +0.000 N 
ATOM      8  C   UNL     1     -18.007 -12.750  13.676  0.00  0.00    +0.000 A 
ATOM      9  C   UNL     1     -16.982 -12.625  12.759  0.00  0.00    +0.000 A 
ENDROOT
BRANCH   9  10
ATOM     10  C   UNL     1     -16.975 -13.216  11.429  0.00  0.00    +0.000 C 
ATOM     11  N   UNL     1     -16.084 -14.120  11.178  0.00  0.00    +0.000 NA
BRANCH  11  12
ATOM     12  N   UNL     1     -16.011 -14.725   9.955  0.00  0.00    +0.000 N 
ATOM     13  C   UNL     1     -15.191 -14.432   8.891  0.00  0.00    +0.000 C 
ATOM     14  O   UNL     1     -14.357 -13.542   8.802  0.00  0.00    +0.000 OA
ATOM     15  N   UNL     1     -15.374 -15.294   7.845  0.00  0.00    +0.000 N 
ATOM     16  H   UNL     1     -16.634 -15.475   9.815  0.00  0.00    +0.000 HD
ATOM     17  H   UNL     1     -16.044 -16.012   7.912  0.00  0.00    +0.000 HD
ATOM     18  H   UNL     1     -14.836 -15.196   7.027  0.00  0.00    +0.000 HD
ENDBRANCH  11  12
ENDBRANCH   9  10
BRANCH   7  19
ATOM     19  C   UNL     1     -18.621 -11.826  15.909  0.00  0.00    +0.000 C 
BRANCH  19  20
ATOM     20  C   UNL     1     -18.082 -12.465  17.171  0.00  0.00    +0.000 A 
ATOM     21  C   UNL     1     -17.117 -13.486  17.115  0.00  0.00    +0.000 A 
ATOM     22  C   UNL     1     -16.666 -14.112  18.281  0.00  0.00    +0.000 A 
ATOM     23  C   UNL     1     -17.159 -13.703  19.517  0.00  0.00    +0.000 A 
ATOM     24  C   UNL     1     -18.073 -12.655  19.597  0.00  0.00    +0.000 A 
ATOM     25  C   UNL     1     -18.531 -12.038  18.429  0.00  0.00    +0.000 A 
ATOM     26  I   UNL     1     -16.548 -14.682  21.246  0.00  0.00    +0.000 I 
ENDBRANCH  19  20
ENDBRANCH   7  19
TORSDOF 4
ENDMDL
MODEL 3
REMARK VINA RESULT:    -7.688      3.635      6.051
REMARK INTER + INTRA:         -10.227
REMARK INTER:                  -9.387
REMARK INTRA:                  -0.841
REMARK UNBOUND:                -0.741
REMARK  Name = 
REMARK  4 active torsions:
REMARK  status: ('A' for Active; 'I' for Inactive)
REMARK    1  A    between atoms: N_7  and  C_16
REMARK    2  A    between atoms: C_9  and  C_10
REMARK    3  A    between atoms: N_11  and  N_12
REMARK    4  A    between atoms: C_16  and  C_17
REMARK                            x       y       z     vdW  Elec       q    Type
REMARK                         _______ _______ _______ _____ _____    ______ ____
ROOT
ATOM      1  C   UNL     1     -15.942 -14.674  20.484  0.00  0.00    +0.000 A 
ATOM      2  C   UNL     1     -16.930 -14.314  21.394  0.00  0.00    +0.000 A 
ATOM      3  C   UNL     1     -17.969 -13.456  21.023  0.00  0.00    +0.000 A 
ATOM      4  C   UNL     1     -18.001 -12.980  19.699  0.00  0.00    +0.000 A 
ATOM      5  C   UNL     1     -17.019 -13.333  18.761  0.00  0.00    +0.000 A 
ATOM      6  C   UNL     1     -15.972 -14.188  19.172  0.00  0.00    +0.000 A 
ATOM      7  N   UNL     1     -18.884 -12.135  19.058  0.00  0.00    +0.000 N 
ATOM      8  C   UNL     1     -18.538 -12.020  17.736  0.00  0.00    +0.000 A 
ATOM      9  C   UNL     1     -17.352 -12.694  17.524  0.00  0.00    +0.000 A 
ENDROOT
BRANCH   9  10
ATOM     10  C   UNL     1     -16.625 -12.727  16.264  0.00  0.00    +0.000 C 
ATOM     11  N   UNL     1     -16.823 -11.757  15.430  0.00  0.00    +0.000 NA
BRANCH  11  12
ATOM     12  N   UNL     1     -16.178 -11.713  14.226  0.00  0.00    +0.000 N 
ATOM     13  C   UNL     1     -15.286 -10.777  13.756  0.00  0.00    +0.000 C 
ATOM     14  O   UNL     1     -14.894  -9.760  14.311  0.00  0.00    +0.000 OA
ATOM     15  N   UNL     1     -14.809 -11.097  12.515  0.00  0.00    +0.000 N 
ATOM     16  H   UNL     1     -16.379 -12.453  13.609  0.00  0.00    +0.000 HD
ATOM     17  H   UNL     1     -15.122 -11.915  12.064  0.00  0.00    +0.000 HD
ATOM     18  H   UNL     1     -14.153 -10.511  12.074  0.00  0.00    +0.000 HD
ENDBRANCH  11  12
ENDBRANCH   9  10
BRANCH   7  19
ATOM     19  C   UNL     1     -20.043 -11.469  19.647  0.00  0.00    +0.000 C 
BRANCH  19  20
ATOM     20  C   UNL     1     -19.666 -10.180  20.343  0.00  0.00    +0.000 A 
ATOM     21  C   UNL     1     -19.418 -10.145  21.726  0.00  0.00    +0.000 A 
ATOM     22  C   UNL     1     -19.126  -8.940  22.372  0.00  0.00    +0.000 A 
ATOM     23  C   UNL     1     -19.056  -7.762  21.635  0.00  0.00    +0.000 A 
ATOM     24  C   UNL     1     -19.244  -7.785  20.254  0.00  0.00    +0.000 A 
ATOM     25  C   UNL     1     -19.545  -8.989  19.612  0.00  0.00    +0.000 A 
ATOM     26  I   UNL     1     -18.699  -5.957  22.603  0.00  0.00    +0.000 I 
ENDBRANCH  19  20
ENDBRANCH   7  19
TORSDOF 4
ENDMDL
