REMARK  Name = 
REMARK  4 active torsions:
REMARK  status: ('A' for Active; 'I' for Inactive)
REMARK    1  A    between atoms: N_7  and  C_16
REMARK    2  A    between atoms: C_9  and  C_10
REMARK    3  A    between atoms: N_11  and  N_12
REMARK    4  A    between atoms: C_16  and  C_17
REMARK                            x       y       z     vdW  Elec       q    Type
REMARK                         _______ _______ _______ _____ _____    ______ ____
ROOT
ATOM      1  C   UNL     1      -2.219  -0.604   0.037  0.00  0.00    +0.000 A 
ATOM      2  C   UNL     1      -2.187   0.786   0.045  0.00  0.00    +0.000 A 
ATOM      3  C   UNL     1      -0.971   1.476   0.028  0.00  0.00    +0.000 A 
ATOM      4  C   UNL     1       0.220   0.728  -0.017  0.00  0.00    +0.000 A 
ATOM      5  C   UNL     1       0.213  -0.675  -0.031  0.00  0.00    +0.000 A 
ATOM      6  C   UNL     1      -1.031  -1.343   0.005  0.00  0.00    +0.000 A 
ATOM      7  N   UNL     1       1.542   1.124  -0.039  0.00  0.00    +0.000 N 
ATOM      8  C   UNL     1       2.353   0.025  -0.155  0.00  0.00    +0.000 A 
ATOM      9  C   UNL     1       1.575  -1.114  -0.089  0.00  0.00    +0.000 A 
ENDROOT
BRANCH   9  10
ATOM     10  C   UNL     1       2.087  -2.476  -0.091  0.00  0.00    +0.000 C 
ATOM     11  N   UNL     1       3.369  -2.636  -0.174  0.00  0.00    +0.000 NA
BRANCH  11  12
ATOM     12  N   UNL     1       3.930  -3.882  -0.180  0.00  0.00    +0.000 N 
ATOM     13  C   UNL     1       3.312  -5.110  -0.151  0.00  0.00    +0.000 C 
ATOM     14  O   UNL     1       2.115  -5.353  -0.089  0.00  0.00    +0.000 OA
ATOM     15  N   UNL     1       4.208  -6.140  -0.219  0.00  0.00    +0.000 N 
ATOM     16  H   UNL     1       4.914  -3.904  -0.208  0.00  0.00    +0.000 HD
ATOM     17  H   UNL     1       5.173  -5.950  -0.269  0.00  0.00    +0.000 HD
ATOM     18  H   UNL     1       3.889  -7.071  -0.219  0.00  0.00    +0.000 HD
ENDBRANCH  11  12
ENDBRANCH   9  10
BRANCH   7  19
ATOM     19  C   UNL     1       2.046   2.494   0.016  0.00  0.00    +0.000 C 
BRANCH  19  20
ATOM     20  C   UNL     1       2.260   2.965   1.438  0.00  0.00    +0.000 A 
ATOM     21  C   UNL     1       3.123   2.279   2.310  0.00  0.00    +0.000 A 
ATOM     22  C   UNL     1       3.272   2.686   3.639  0.00  0.00    +0.000 A 
ATOM     23  C   UNL     1       2.576   3.799   4.101  0.00  0.00    +0.000 A 
ATOM     24  C   UNL     1       1.759   4.525   3.237  0.00  0.00    +0.000 A 
ATOM     25  C   UNL     1       1.604   4.111   1.911  0.00  0.00    +0.000 A 
ATOM     26  I   UNL     1       2.735   4.361   6.096  0.00  0.00    +0.000 I 
ENDBRANCH  19  20
ENDBRANCH   7  19
TORSDOF 4
