REMARK VINA RESULT:    -7.373      1.449      2.818
REMARK INTER + INTRA:         -10.309
REMARK INTER:                  -9.926
REMARK INTRA:                  -0.383
REMARK UNBOUND:                -0.781
REMARK  Name = 8a.sdf
REMARK  5 active torsions:
REMARK  status: ('A' for Active; 'I' for Inactive)
REMARK    1  A    between atoms: N_7  and  C_12
REMARK    2  A    between atoms: C_9  and  C_10
REMARK    3  A    between atoms: N_11  and  N_20
REMARK    4  A    between atoms: C_12  and  C_13
REMARK    5  A    between atoms: C_21  and  C_23
REMARK                            x       y       z     vdW  Elec       q    Type
REMARK                         _______ _______ _______ _____ _____    ______ ____
ROOT
ATOM      1  C   UNL     1     -18.895  -8.509  18.289  0.00  0.00    -0.061 A 
ATOM      2  C   UNL     1     -19.129  -8.475  19.659  0.00  0.00    -0.060 A 
ATOM      3  C   UNL     1     -18.972  -9.622  20.444  0.00  0.00    -0.038 A 
ATOM      4  C   UNL     1     -18.561 -10.810  19.816  0.00  0.00    +0.050 A 
ATOM      5  C   UNL     1     -18.276 -10.856  18.446  0.00  0.00    +0.009 A 
ATOM      6  C   UNL     1     -18.463  -9.687  17.675  0.00  0.00    -0.052 A 
ATOM      7  N   UNL     1     -18.369 -12.087  20.310  0.00  0.00    -0.342 N 
ATOM      8  C   UNL     1     -17.899 -12.905  19.312  0.00  0.00    +0.015 A 
ATOM      9  C   UNL     1     -17.821 -12.178  18.141  0.00  0.00    +0.020 A 
ENDROOT
BRANCH   9  10
ATOM     10  C   UNL     1     -17.360 -12.670  16.864  0.00  0.00    +0.055 C 
ATOM     11  N   UNL     1     -18.175 -12.726  15.859  0.00  0.00    -0.187 NA
BRANCH  11  12
ATOM     12  N   UNL     1     -17.656 -13.212  14.692  0.00  0.00    -0.203 N 
ATOM     13  C   UNL     1     -17.077 -12.334  13.785  0.00  0.00    +0.263 C 
ATOM     14  O   UNL     1     -16.972 -11.124  13.936  0.00  0.00    -0.268 OA
ATOM     15  H   UNL     1     -17.691 -14.175  14.496  0.00  0.00    +0.000 HD
BRANCH  13  16
ATOM     16  C   UNL     1     -16.517 -12.962  12.552  0.00  0.00    +0.038 A 
ATOM     17  C   UNL     1     -16.410 -14.349  12.392  0.00  0.00    -0.049 A 
ATOM     18  C   UNL     1     -15.874 -14.879  11.214  0.00  0.00    -0.047 A 
ATOM     19  C   UNL     1     -15.458 -14.023  10.193  0.00  0.00    +0.018 A 
ATOM     20  C   UNL     1     -15.581 -12.644  10.331  0.00  0.00    -0.047 A 
ATOM     21  C   UNL     1     -16.116 -12.114  11.508  0.00  0.00    -0.049 A 
ATOM     22 BR   UNL     1     -14.731 -14.746   8.605  0.00  0.00    -0.050 Br
ENDBRANCH  13  16
ENDBRANCH  11  12
ENDBRANCH   9  10
BRANCH   7  23
ATOM     23  C   UNL     1     -18.707 -12.555  21.653  0.00  0.00    +0.048 C 
BRANCH  23  24
ATOM     24  C   UNL     1     -20.012 -11.972  22.137  0.00  0.00    -0.028 A 
ATOM     25  C   UNL     1     -21.190 -12.145  21.396  0.00  0.00    -0.056 A 
ATOM     26  C   UNL     1     -22.373 -11.516  21.786  0.00  0.00    -0.047 A 
ATOM     27  C   UNL     1     -22.389 -10.721  22.929  0.00  0.00    +0.018 A 
ATOM     28  C   UNL     1     -21.241 -10.580  23.706  0.00  0.00    -0.047 A 
ATOM     29  C   UNL     1     -20.057 -11.204  23.312  0.00  0.00    -0.056 A 
ATOM     30 BR   UNL     1     -23.968  -9.800  23.409  0.00  0.00    -0.050 Br
ENDBRANCH  23  24
ENDBRANCH   7  23
TORSDOF 5
