MODEL 1
REMARK VINA RESULT:    -8.194      0.000      0.000
REMARK INTER + INTRA:         -10.787
REMARK INTER:                 -10.110
REMARK INTRA:                  -0.677
REMARK UNBOUND:                -0.677
REMARK  Name = 10.sdf
REMARK  5 active torsions:
REMARK  status: ('A' for Active; 'I' for Inactive)
REMARK    1  A    between atoms: C_9  and  C_10
REMARK    2  A    between atoms: C_11  and  C_12
REMARK    3  A    between atoms: C_12  and  C_13
REMARK    4  A    between atoms: C_17  and  O_20
REMARK    5  A    between atoms: O_20  and  C_21
REMARK                            x       y       z     vdW  Elec       q    Type
REMARK                         _______ _______ _______ _____ _____    ______ ____
ROOT
ATOM      1  C   UNL     1      -3.483   7.132 -22.377  0.00  0.00    -0.049 C 
ATOM      2  C   UNL     1      -4.112   8.232 -22.830  0.00  0.00    -0.014 C 
ENDROOT
BRANCH   1  11
ATOM      3  C   UNL     1      -1.018   5.943 -26.218  0.00  0.00    -0.061 A 
ATOM      4  C   UNL     1      -1.243   4.617 -26.577  0.00  0.00    -0.060 A 
ATOM      5  C   UNL     1      -2.102   3.814 -25.828  0.00  0.00    -0.038 A 
ATOM      6  C   UNL     1      -2.723   4.386 -24.710  0.00  0.00    +0.047 A 
ATOM      7  C   UNL     1      -2.526   5.713 -24.319  0.00  0.00    +0.007 A 
ATOM      8  C   UNL     1      -1.653   6.504 -25.097  0.00  0.00    -0.052 A 
ATOM      9  N   UNL     1      -3.596   3.819 -23.816  0.00  0.00    -0.360 N 
ATOM     10  C   UNL     1      -3.966   4.735 -22.872  0.00  0.00    +0.010 A 
ATOM     11  C   UNL     1      -3.328   5.928 -23.145  0.00  0.00    +0.000 A 
ATOM     12  H   UNL     1      -3.911   2.887 -23.850  0.00  0.00    +0.000 HD
ENDBRANCH   1  11
BRANCH   2  13
ATOM     13  C   UNL     1      -4.230   9.495 -22.050  0.00  0.00    +0.186 C 
ATOM     14  O   UNL     1      -4.847   9.562 -20.995  0.00  0.00    -0.287 OA
BRANCH  13  15
ATOM     15  C   UNL     1      -3.596  10.704 -22.656  0.00  0.00    +0.022 A 
ATOM     16  C   UNL     1      -3.844  11.964 -22.101  0.00  0.00    -0.047 A 
ATOM     17  C   UNL     1      -3.283  13.115 -22.675  0.00  0.00    -0.019 A 
ATOM     18  C   UNL     1      -2.462  13.013 -23.799  0.00  0.00    +0.120 A 
ATOM     19  C   UNL     1      -2.191  11.751 -24.333  0.00  0.00    -0.019 A 
ATOM     20  C   UNL     1      -2.747  10.601 -23.765  0.00  0.00    -0.047 A 
BRANCH  18  21
ATOM     21  O   UNL     1      -1.867  14.046 -24.467  0.00  0.00    -0.495 OA
ATOM     22  C   UNL     1      -1.490  13.813 -25.818  0.00  0.00    +0.079 C 
ENDBRANCH  18  21
ENDBRANCH  13  15
ENDBRANCH   2  13
TORSDOF 4
ENDMDL
