MODEL 1
REMARK VINA RESULT:    -6.794      0.000      0.000
REMARK INTER + INTRA:          -8.172
REMARK INTER:                  -7.986
REMARK INTRA:                  -0.186
REMARK UNBOUND:                -0.186
REMARK  Name = 14.sdf
REMARK  4 active torsions:
REMARK  status: ('A' for Active; 'I' for Inactive)
REMARK    1  A    between atoms: C_9  and  C_10
REMARK    2  A    between atoms: C_10  and  O_11
REMARK    3  A    between atoms: O_11  and  C_12
REMARK    4  A    between atoms: C_12  and  C_13
REMARK                            x       y       z     vdW  Elec       q    Type
REMARK                         _______ _______ _______ _____ _____    ______ ____
ROOT
ATOM      1  C   UNL     1      -0.731   6.558 -26.381  0.00  0.00    -0.061 A 
ATOM      2  C   UNL     1      -0.729   5.342 -27.056  0.00  0.00    -0.060 A 
ATOM      3  C   UNL     1      -1.490   4.265 -26.593  0.00  0.00    -0.038 A 
ATOM      4  C   UNL     1      -2.243   4.451 -25.425  0.00  0.00    +0.047 A 
ATOM      5  C   UNL     1      -2.265   5.655 -24.721  0.00  0.00    +0.006 A 
ATOM      6  C   UNL     1      -1.494   6.729 -25.220  0.00  0.00    -0.052 A 
ATOM      7  N   UNL     1      -3.061   3.573 -24.753  0.00  0.00    -0.360 N 
ATOM      8  C   UNL     1      -3.589   4.174 -23.642  0.00  0.00    +0.009 A 
ATOM      9  C   UNL     1      -3.121   5.477 -23.583  0.00  0.00    +0.015 A 
ATOM     10  H   UNL     1      -3.241   2.646 -25.031  0.00  0.00    +0.000 HD
ENDROOT
BRANCH   9  11
ATOM     11  C   UNL     1      -3.452   6.492 -22.525  0.00  0.00    +0.119 C 
BRANCH  11  12
ATOM     12  O   UNL     1      -3.920   5.860 -21.294  0.00  0.00    -0.460 OA
BRANCH  12  13
ATOM     13  C   UNL     1      -4.938   6.461 -20.605  0.00  0.00    +0.304 C 
ATOM     14  C   UNL     1      -4.773   7.952 -20.416  0.00  0.00    +0.033 C 
ATOM     15  O   UNL     1      -5.911   5.885 -20.158  0.00  0.00    -0.251 OA
ENDBRANCH  12  13
ENDBRANCH  11  12
ENDBRANCH   9  11
TORSDOF 3
ENDMDL
