MODEL 1
REMARK VINA RESULT:    -7.409      0.000      0.000
REMARK INTER + INTRA:          -8.493
REMARK INTER:                  -8.275
REMARK INTRA:                  -0.217
REMARK UNBOUND:                -0.217
REMARK  Name = 17.sdf
REMARK  2 active torsions:
REMARK  status: ('A' for Active; 'I' for Inactive)
REMARK    1  A    between atoms: C_9  and  C_10
REMARK    2  A    between atoms: N_11  and  N_12
REMARK                            x       y       z     vdW  Elec       q    Type
REMARK                         _______ _______ _______ _____ _____    ______ ____
ROOT
ATOM      1  C   UNL     1      -1.083   5.981 -25.777  0.00  0.00    -0.061 A 
ATOM      2  C   UNL     1      -1.333   4.761 -26.401  0.00  0.00    -0.060 A 
ATOM      3  C   UNL     1      -2.273   3.866 -25.882  0.00  0.00    -0.038 A 
ATOM      4  C   UNL     1      -2.945   4.240 -24.713  0.00  0.00    +0.047 A 
ATOM      5  C   UNL     1      -2.717   5.455 -24.062  0.00  0.00    +0.008 A 
ATOM      6  C   UNL     1      -1.768   6.341 -24.612  0.00  0.00    -0.052 A 
ATOM      7  N   UNL     1      -3.900   3.563 -23.993  0.00  0.00    -0.360 N 
ATOM      8  C   UNL     1      -4.275   4.299 -22.907  0.00  0.00    +0.011 A 
ATOM      9  C   UNL     1      -3.566   5.488 -22.913  0.00  0.00    +0.020 A 
ATOM     10  H   UNL     1      -4.260   2.676 -24.226  0.00  0.00    +0.000 HD
ENDROOT
BRANCH   9  11
ATOM     11  C   UNL     1      -3.690   6.533 -21.919  0.00  0.00    +0.055 C 
ATOM     12  N   UNL     1      -4.185   7.661 -22.309  0.00  0.00    -0.186 NA
BRANCH  12  13
ATOM     13  N   UNL     1      -4.302   8.647 -21.376  0.00  0.00    -0.191 N 
ATOM     14  C   UNL     1      -4.708   9.907 -21.747  0.00  0.00    +0.317 C 
ATOM     15  O   UNL     1      -4.841  10.834 -20.957  0.00  0.00    -0.251 OA
ATOM     16  N   UNL     1      -4.949  10.041 -23.075  0.00  0.00    -0.312 N 
ATOM     17  H   UNL     1      -4.094   8.456 -20.433  0.00  0.00    +0.000 HD
ATOM     18  H   UNL     1      -4.831   9.272 -23.677  0.00  0.00    +0.000 HD
ATOM     19  H   UNL     1      -5.243  10.908 -23.437  0.00  0.00    +0.000 HD
ENDBRANCH  12  13
ENDBRANCH   9  11
TORSDOF 2
ENDMDL
