MODEL 1
REMARK VINA RESULT:    -8.333      0.000      0.000
REMARK INTER + INTRA:         -11.521
REMARK INTER:                 -10.769
REMARK INTRA:                  -0.752
REMARK UNBOUND:                -0.752
REMARK  Name = 17f.sdf
REMARK  5 active torsions:
REMARK  status: ('A' for Active; 'I' for Inactive)
REMARK    1  A    between atoms: N_7  and  C_11
REMARK    2  A    between atoms: C_9  and  C_10
REMARK    3  A    between atoms: C_11  and  C_12
REMARK    4  A    between atoms: C_12  and  C_13
REMARK    5  A    between atoms: N_21  and  N_22
REMARK                            x       y       z     vdW  Elec       q    Type
REMARK                         _______ _______ _______ _____ _____    ______ ____
ROOT
ATOM      1  C   UNL     1      -5.093   5.379 -22.439  0.00  0.00    -0.061 A 
ATOM      2  C   UNL     1      -4.621   4.175 -22.949  0.00  0.00    -0.060 A 
ATOM      3  C   UNL     1      -3.455   4.123 -23.723  0.00  0.00    -0.038 A 
ATOM      4  C   UNL     1      -2.757   5.321 -23.943  0.00  0.00    +0.050 A 
ATOM      5  C   UNL     1      -3.143   6.516 -23.328  0.00  0.00    +0.009 A 
ATOM      6  C   UNL     1      -4.357   6.553 -22.607  0.00  0.00    -0.052 A 
ATOM      7  N   UNL     1      -1.661   5.619 -24.731  0.00  0.00    -0.338 N 
ATOM      8  C   UNL     1      -1.216   6.886 -24.442  0.00  0.00    +0.015 A 
ATOM      9  C   UNL     1      -2.093   7.461 -23.543  0.00  0.00    +0.020 A 
ENDROOT
BRANCH   9  10
ATOM     10  C   UNL     1      -1.954   8.743 -22.886  0.00  0.00    +0.055 C 
ATOM     11  N   UNL     1      -2.695   9.739 -23.260  0.00  0.00    -0.186 NA
BRANCH  11  12
ATOM     12  N   UNL     1      -2.383  10.929 -22.653  0.00  0.00    -0.191 N 
ATOM     13  C   UNL     1      -3.319  11.923 -22.514  0.00  0.00    +0.317 C 
ATOM     14  O   UNL     1      -3.050  13.041 -22.095  0.00  0.00    -0.251 OA
ATOM     15  N   UNL     1      -4.572  11.554 -22.875  0.00  0.00    -0.312 N 
ATOM     16  H   UNL     1      -1.471  11.073 -22.313  0.00  0.00    +0.000 HD
ATOM     17  H   UNL     1      -4.739  10.642 -23.208  0.00  0.00    +0.000 HD
ATOM     18  H   UNL     1      -5.314  12.197 -22.804  0.00  0.00    +0.000 HD
ENDBRANCH  11  12
ENDBRANCH   9  10
BRANCH   7  19
ATOM     19  C   UNL     1      -1.188   4.831 -25.870  0.00  0.00    +0.086 C 
BRANCH  19  20
ATOM     20  C   UNL     1      -1.266   5.534 -27.205  0.00  0.00    +0.183 C 
ATOM     21  O   UNL     1      -2.317   5.745 -27.798  0.00  0.00    -0.290 OA
BRANCH  20  22
ATOM     22  C   UNL     1       0.019   6.012 -27.823  0.00  0.00    +0.019 A 
ATOM     23  C   UNL     1       0.405   7.359 -27.834  0.00  0.00    -0.050 A 
ATOM     24  C   UNL     1       1.573   7.754 -28.499  0.00  0.00    -0.047 A 
ATOM     25  C   UNL     1       2.360   6.804 -29.148  0.00  0.00    +0.018 A 
ATOM     26  C   UNL     1       2.014   5.457 -29.107  0.00  0.00    -0.047 A 
ATOM     27  C   UNL     1       0.848   5.062 -28.441  0.00  0.00    -0.050 A 
ATOM     28 BR   UNL     1       3.889   7.351 -30.116  0.00  0.00    -0.050 Br
ENDBRANCH  20  22
ENDBRANCH  19  20
ENDBRANCH   7  19
TORSDOF 5
ENDMDL
