MODEL 1
REMARK VINA RESULT:    -8.906      0.000      0.000
REMARK INTER + INTRA:         -11.573
REMARK INTER:                 -11.510
REMARK INTRA:                  -0.063
REMARK UNBOUND:                -0.063
REMARK  Name = 18a.sdf
REMARK  5 active torsions:
REMARK  status: ('A' for Active; 'I' for Inactive)
REMARK    1  A    between atoms: N_7  and  C_12
REMARK    2  A    between atoms: C_9  and  C_10
REMARK    3  A    between atoms: N_11  and  N_19
REMARK    4  A    between atoms: C_12  and  C_13
REMARK    5  A    between atoms: C_20  and  C_22
REMARK                            x       y       z     vdW  Elec       q    Type
REMARK                         _______ _______ _______ _____ _____    ______ ____
ROOT
ATOM      1  C   UNL     1      -4.799   5.339 -22.199  0.00  0.00    -0.061 A 
ATOM      2  C   UNL     1      -4.503   4.149 -22.851  0.00  0.00    -0.060 A 
ATOM      3  C   UNL     1      -3.617   4.120 -23.934  0.00  0.00    -0.038 A 
ATOM      4  C   UNL     1      -3.029   5.327 -24.351  0.00  0.00    +0.050 A 
ATOM      5  C   UNL     1      -3.271   6.529 -23.670  0.00  0.00    +0.009 A 
ATOM      6  C   UNL     1      -4.179   6.529 -22.589  0.00  0.00    -0.052 A 
ATOM      7  N   UNL     1      -2.185   5.626 -25.408  0.00  0.00    -0.342 N 
ATOM      8  C   UNL     1      -1.826   6.951 -25.351  0.00  0.00    +0.015 A 
ATOM      9  C   UNL     1      -2.465   7.541 -24.280  0.00  0.00    +0.020 A 
ENDROOT
BRANCH   9  10
ATOM     10  C   UNL     1      -2.343   8.924 -23.866  0.00  0.00    +0.055 C 
ATOM     11  N   UNL     1      -3.189   9.803 -24.304  0.00  0.00    -0.187 NA
BRANCH  11  12
ATOM     12  N   UNL     1      -2.994  11.086 -23.874  0.00  0.00    -0.203 N 
ATOM     13  C   UNL     1      -3.697  11.551 -22.771  0.00  0.00    +0.263 C 
ATOM     14  O   UNL     1      -4.493  10.889 -22.115  0.00  0.00    -0.268 OA
ATOM     15  H   UNL     1      -2.360  11.676 -24.344  0.00  0.00    +0.000 HD
BRANCH  13  16
ATOM     16  C   UNL     1      -3.407  12.957 -22.359  0.00  0.00    +0.038 A 
ATOM     17  C   UNL     1      -2.233  13.624 -22.734  0.00  0.00    -0.050 A 
ATOM     18  C   UNL     1      -2.022  14.948 -22.320  0.00  0.00    -0.061 A 
ATOM     19  C   UNL     1      -2.979  15.603 -21.545  0.00  0.00    -0.062 A 
ATOM     20  C   UNL     1      -4.156  14.948 -21.188  0.00  0.00    -0.061 A 
ATOM     21  C   UNL     1      -4.370  13.629 -21.598  0.00  0.00    -0.050 A 
ENDBRANCH  13  16
ENDBRANCH  11  12
ENDBRANCH   9  10
BRANCH   7  22
ATOM     22  C   UNL     1      -1.814   4.736 -26.509  0.00  0.00    +0.048 C 
BRANCH  22  23
ATOM     23  C   UNL     1      -0.870   5.405 -27.478  0.00  0.00    -0.028 A 
ATOM     24  C   UNL     1       0.402   4.867 -27.716  0.00  0.00    -0.056 A 
ATOM     25  C   UNL     1       1.336   5.566 -28.483  0.00  0.00    -0.047 A 
ATOM     26  C   UNL     1       0.993   6.797 -29.034  0.00  0.00    +0.018 A 
ATOM     27  C   UNL     1      -0.293   7.307 -28.879  0.00  0.00    -0.047 A 
ATOM     28  C   UNL     1      -1.224   6.611 -28.104  0.00  0.00    -0.056 A 
ATOM     29 BR   UNL     1       2.300   7.807 -29.954  0.00  0.00    -0.050 Br
ENDBRANCH  22  23
ENDBRANCH   7  22
TORSDOF 5
ENDMDL
