MODEL 1
REMARK VINA RESULT:    -6.821      0.000      0.000
REMARK INTER + INTRA:          -8.577
REMARK INTER:                  -8.416
REMARK INTRA:                  -0.160
REMARK UNBOUND:                -0.160
REMARK  Name = 19.sdf
REMARK  5 active torsions:
REMARK  status: ('A' for Active; 'I' for Inactive)
REMARK    1  A    between atoms: C_9  and  C_10
REMARK    2  A    between atoms: C_10  and  C_11
REMARK    3  A    between atoms: C_11  and  O_13
REMARK    4  A    between atoms: O_13  and  C_14
REMARK    5  A    between atoms: C_14  and  C_15
REMARK                            x       y       z     vdW  Elec       q    Type
REMARK                         _______ _______ _______ _____ _____    ______ ____
ROOT
ATOM      1  C   UNL     1      -1.099   6.514 -25.554  0.00  0.00    -0.061 A 
ATOM      2  C   UNL     1      -1.251   5.478 -26.471  0.00  0.00    -0.060 A 
ATOM      3  C   UNL     1      -2.074   4.383 -26.191  0.00  0.00    -0.038 A 
ATOM      4  C   UNL     1      -2.744   4.379 -24.964  0.00  0.00    +0.047 A 
ATOM      5  C   UNL     1      -2.631   5.408 -24.028  0.00  0.00    +0.003 A 
ATOM      6  C   UNL     1      -1.782   6.494 -24.333  0.00  0.00    -0.052 A 
ATOM      7  N   UNL     1      -3.602   3.444 -24.433  0.00  0.00    -0.360 N 
ATOM      8  C   UNL     1      -4.062   3.863 -23.213  0.00  0.00    +0.006 A 
ATOM      9  C   UNL     1      -3.482   5.084 -22.920  0.00  0.00    -0.012 A 
ATOM     10  H   UNL     1      -3.850   2.597 -24.868  0.00  0.00    +0.000 HD
ENDROOT
BRANCH   9  11
ATOM     11  C   UNL     1      -3.741   5.918 -21.704  0.00  0.00    +0.072 C 
BRANCH  11  12
ATOM     12  C   UNL     1      -5.206   6.233 -21.464  0.00  0.00    +0.312 C 
ATOM     13  O   UNL     1      -6.117   5.426 -21.343  0.00  0.00    -0.250 OA
BRANCH  12  14
ATOM     14  O   UNL     1      -5.368   7.594 -21.457  0.00  0.00    -0.465 OA
BRANCH  14  15
ATOM     15  C   UNL     1      -4.497   8.335 -20.588  0.00  0.00    +0.090 C 
ATOM     16  C   UNL     1      -3.936   9.558 -21.283  0.00  0.00    -0.031 C 
ENDBRANCH  14  15
ENDBRANCH  12  14
ENDBRANCH  11  12
ENDBRANCH   9  11
TORSDOF 4
ENDMDL
