MODEL 1
REMARK VINA RESULT:    -7.554      0.000      0.000
REMARK INTER + INTRA:         -10.992
REMARK INTER:                  -9.763
REMARK INTRA:                  -1.229
REMARK UNBOUND:                -1.229
REMARK  Name = 21.sdf
REMARK  5 active torsions:
REMARK  status: ('A' for Active; 'I' for Inactive)
REMARK    1  A    between atoms: C_9  and  C_10
REMARK    2  A    between atoms: C_10  and  O_11
REMARK    3  A    between atoms: O_11  and  C_12
REMARK    4  A    between atoms: C_12  and  C_13
REMARK    5  A    between atoms: C_13  and  C_14
REMARK                            x       y       z     vdW  Elec       q    Type
REMARK                         _______ _______ _______ _____ _____    ______ ____
ROOT
ATOM      1  C   UNL     1      -3.021   4.491 -23.385  0.00  0.00    +0.075 C 
ENDROOT
BRANCH   1  10
ATOM      2  C   UNL     1      -0.819   8.134 -25.436  0.00  0.00    -0.061 A 
ATOM      3  C   UNL     1      -0.563   7.913 -26.787  0.00  0.00    -0.060 A 
ATOM      4  C   UNL     1      -0.870   6.684 -27.378  0.00  0.00    -0.038 A 
ATOM      5  C   UNL     1      -1.475   5.704 -26.581  0.00  0.00    +0.047 A 
ATOM      6  C   UNL     1      -1.775   5.902 -25.232  0.00  0.00    +0.005 A 
ATOM      7  C   UNL     1      -1.405   7.133 -24.648  0.00  0.00    -0.052 A 
ATOM      8  N   UNL     1      -1.875   4.427 -26.893  0.00  0.00    -0.360 N 
ATOM      9  C   UNL     1      -2.453   3.830 -25.807  0.00  0.00    +0.008 A 
ATOM     10  C   UNL     1      -2.443   4.724 -24.751  0.00  0.00    +0.003 A 
ATOM     11  H   UNL     1      -1.762   4.001 -27.773  0.00  0.00    +0.000 HD
ENDBRANCH   1  10
BRANCH   1  12
ATOM     12  O   UNL     1      -3.973   5.510 -23.053  0.00  0.00    -0.367 OA
BRANCH  12  13
ATOM     13  C   UNL     1      -3.869   5.949 -21.708  0.00  0.00    +0.111 C 
BRANCH  13  14
ATOM     14  C   UNL     1      -4.509   7.320 -21.489  0.00  0.00    +0.189 C 
ATOM     15  O   UNL     1      -5.479   7.460 -20.735  0.00  0.00    -0.290 OA
BRANCH  14  16
ATOM     16  C   UNL     1      -3.901   8.531 -22.114  0.00  0.00    +0.020 A 
ATOM     17  C   UNL     1      -4.206   8.934 -23.418  0.00  0.00    -0.050 A 
ATOM     18  C   UNL     1      -3.551  10.028 -23.990  0.00  0.00    -0.047 A 
ATOM     19  C   UNL     1      -2.589  10.722 -23.258  0.00  0.00    +0.018 A 
ATOM     20  C   UNL     1      -2.292  10.350 -21.949  0.00  0.00    -0.047 A 
ATOM     21  C   UNL     1      -2.946   9.256 -21.379  0.00  0.00    -0.050 A 
ATOM     22 BR   UNL     1      -1.647  12.150 -24.063  0.00  0.00    -0.050 Br
ENDBRANCH  14  16
ENDBRANCH  13  14
ENDBRANCH  12  13
ENDBRANCH   1  12
TORSDOF 5
ENDMDL
