MODEL 1
REMARK VINA RESULT:    -8.550      0.000      0.000
REMARK INTER + INTRA:         -14.302
REMARK INTER:                 -12.549
REMARK INTRA:                  -1.752
REMARK UNBOUND:                -1.752
REMARK  Name = 21f.sdf
REMARK  8 active torsions:
REMARK  status: ('A' for Active; 'I' for Inactive)
REMARK    1  A    between atoms: N_7  and  C_22
REMARK    2  A    between atoms: C_9  and  C_10
REMARK    3  A    between atoms: C_10  and  O_11
REMARK    4  A    between atoms: O_11  and  C_12
REMARK    5  A    between atoms: C_12  and  C_13
REMARK    6  A    between atoms: C_13  and  C_14
REMARK    7  A    between atoms: C_22  and  C_23
REMARK    8  A    between atoms: C_23  and  C_24
REMARK                            x       y       z     vdW  Elec       q    Type
REMARK                         _______ _______ _______ _____ _____    ______ ____
ROOT
ATOM      1  C   UNL     1      -4.336   3.940 -23.256  0.00  0.00    -0.061 A 
ATOM      2  C   UNL     1      -5.030   4.938 -22.579  0.00  0.00    -0.060 A 
ATOM      3  C   UNL     1      -4.533   6.247 -22.504  0.00  0.00    -0.038 A 
ATOM      4  C   UNL     1      -3.325   6.529 -23.160  0.00  0.00    +0.050 A 
ATOM      5  C   UNL     1      -2.680   5.568 -23.941  0.00  0.00    +0.005 A 
ATOM      6  C   UNL     1      -3.170   4.247 -23.955  0.00  0.00    -0.052 A 
ATOM      7  N   UNL     1      -2.545   7.669 -23.215  0.00  0.00    -0.339 N 
ATOM      8  C   UNL     1      -1.576   7.524 -24.179  0.00  0.00    +0.012 A 
ATOM      9  C   UNL     1      -1.667   6.243 -24.687  0.00  0.00    +0.003 A 
ENDROOT
BRANCH   9  10
ATOM     10  C   UNL     1      -0.968   5.689 -25.880  0.00  0.00    +0.075 C 
BRANCH  10  11
ATOM     11  O   UNL     1      -1.870   5.404 -26.964  0.00  0.00    -0.367 OA
BRANCH  11  12
ATOM     12  C   UNL     1      -1.890   6.425 -27.960  0.00  0.00    +0.111 C 
BRANCH  12  13
ATOM     13  C   UNL     1      -0.495   6.941 -28.293  0.00  0.00    +0.189 C 
ATOM     14  O   UNL     1       0.366   6.207 -28.778  0.00  0.00    -0.290 OA
BRANCH  13  15
ATOM     15  C   UNL     1      -0.195   8.393 -28.113  0.00  0.00    +0.020 A 
ATOM     16  C   UNL     1       0.944   8.997 -28.659  0.00  0.00    -0.050 A 
ATOM     17  C   UNL     1       1.204  10.350 -28.422  0.00  0.00    -0.047 A 
ATOM     18  C   UNL     1       0.332  11.097 -27.634  0.00  0.00    +0.018 A 
ATOM     19  C   UNL     1      -0.810  10.508 -27.090  0.00  0.00    -0.047 A 
ATOM     20  C   UNL     1      -1.070   9.158 -27.332  0.00  0.00    -0.050 A 
ATOM     21 BR   UNL     1       0.704  12.916 -27.291  0.00  0.00    -0.050 Br
ENDBRANCH  13  15
ENDBRANCH  12  13
ENDBRANCH  11  12
ENDBRANCH  10  11
ENDBRANCH   9  10
BRANCH   7  22
ATOM     22  C   UNL     1      -2.579   8.771 -22.258  0.00  0.00    +0.086 C 
BRANCH  22  23
ATOM     23  C   UNL     1      -3.516   9.903 -22.612  0.00  0.00    +0.183 C 
ATOM     24  O   UNL     1      -4.741   9.797 -22.622  0.00  0.00    -0.290 OA
BRANCH  23  25
ATOM     25  C   UNL     1      -2.903  11.229 -22.959  0.00  0.00    +0.019 A 
ATOM     26  C   UNL     1      -1.732  11.343 -23.724  0.00  0.00    -0.050 A 
ATOM     27  C   UNL     1      -1.157  12.600 -23.954  0.00  0.00    -0.047 A 
ATOM     28  C   UNL     1      -1.754  13.744 -23.427  0.00  0.00    +0.018 A 
ATOM     29  C   UNL     1      -2.939  13.649 -22.703  0.00  0.00    -0.047 A 
ATOM     30  C   UNL     1      -3.515  12.395 -22.475  0.00  0.00    -0.050 A 
ATOM     31 BR   UNL     1      -0.932  15.428 -23.673  0.00  0.00    -0.050 Br
ENDBRANCH  23  25
ENDBRANCH  22  23
ENDBRANCH   7  22
TORSDOF 8
ENDMDL
