MODEL 1
REMARK VINA RESULT:    -8.249      0.000      0.000
REMARK INTER + INTRA:         -12.067
REMARK INTER:                 -11.143
REMARK INTRA:                  -0.924
REMARK UNBOUND:                -0.924
REMARK  Name = 22a.sdf
REMARK  7 active torsions:
REMARK  status: ('A' for Active; 'I' for Inactive)
REMARK    1  A    between atoms: N_7  and  C_12
REMARK    2  A    between atoms: C_9  and  C_10
REMARK    3  A    between atoms: N_11  and  N_19
REMARK    4  A    between atoms: C_12  and  C_13
REMARK    5  A    between atoms: C_20  and  C_22
REMARK    6  A    between atoms: C_25  and  O_29
REMARK    7  A    between atoms: O_29  and  C_30
REMARK                            x       y       z     vdW  Elec       q    Type
REMARK                         _______ _______ _______ _____ _____    ______ ____
ROOT
ATOM      1  C   UNL     1      -2.134   4.674 -24.493  0.00  0.00    -0.061 A 
ATOM      2  C   UNL     1      -1.569   4.111 -25.631  0.00  0.00    -0.060 A 
ATOM      3  C   UNL     1      -1.085   4.915 -26.667  0.00  0.00    -0.038 A 
ATOM      4  C   UNL     1      -1.172   6.311 -26.527  0.00  0.00    +0.050 A 
ATOM      5  C   UNL     1      -1.694   6.903 -25.368  0.00  0.00    +0.009 A 
ATOM      6  C   UNL     1      -2.194   6.063 -24.347  0.00  0.00    -0.052 A 
ATOM      7  N   UNL     1      -0.829   7.342 -27.383  0.00  0.00    -0.342 N 
ATOM      8  C   UNL     1      -1.047   8.549 -26.766  0.00  0.00    +0.015 A 
ATOM      9  C   UNL     1      -1.575   8.321 -25.510  0.00  0.00    +0.020 A 
ENDROOT
BRANCH   9  10
ATOM     10  C   UNL     1      -1.930   9.332 -24.540  0.00  0.00    +0.055 C 
ATOM     11  N   UNL     1      -2.635  10.357 -24.905  0.00  0.00    -0.187 NA
BRANCH  11  12
ATOM     12  N   UNL     1      -2.920  11.272 -23.928  0.00  0.00    -0.203 N 
ATOM     13  C   UNL     1      -2.508  12.587 -24.090  0.00  0.00    +0.263 C 
ATOM     14  O   UNL     1      -1.905  13.025 -25.064  0.00  0.00    -0.268 OA
ATOM     15  H   UNL     1      -3.412  11.002 -23.119  0.00  0.00    +0.000 HD
BRANCH  13  16
ATOM     16  C   UNL     1      -2.881  13.528 -22.991  0.00  0.00    +0.039 A 
ATOM     17  C   UNL     1      -2.106  14.643 -22.657  0.00  0.00    -0.046 A 
ATOM     18  C   UNL     1      -2.504  15.477 -21.607  0.00  0.00    -0.019 A 
ATOM     19  C   UNL     1      -3.684  15.227 -20.900  0.00  0.00    +0.120 A 
ATOM     20  C   UNL     1      -4.468  14.128 -21.245  0.00  0.00    -0.019 A 
ATOM     21  C   UNL     1      -4.069  13.284 -22.289  0.00  0.00    -0.046 A 
BRANCH  19  22
ATOM     22  O   UNL     1      -3.935  16.089 -19.868  0.00  0.00    -0.495 OA
ATOM     23  C   UNL     1      -4.312  15.501 -18.629  0.00  0.00    +0.079 C 
ENDBRANCH  19  22
ENDBRANCH  13  16
ENDBRANCH  11  12
ENDBRANCH   9  10
BRANCH   7  24
ATOM     24  C   UNL     1      -0.400   7.204 -28.775  0.00  0.00    +0.048 C 
BRANCH  24  25
ATOM     25  C   UNL     1       1.093   7.023 -28.883  0.00  0.00    -0.028 A 
ATOM     26  C   UNL     1       1.964   8.084 -28.595  0.00  0.00    -0.056 A 
ATOM     27  C   UNL     1       3.337   7.955 -28.811  0.00  0.00    -0.047 A 
ATOM     28  C   UNL     1       3.849   6.757 -29.302  0.00  0.00    +0.018 A 
ATOM     29  C   UNL     1       3.007   5.674 -29.539  0.00  0.00    -0.047 A 
ATOM     30  C   UNL     1       1.633   5.806 -29.329  0.00  0.00    -0.056 A 
ATOM     31 BR   UNL     1       5.695   6.615 -29.686  0.00  0.00    -0.050 Br
ENDBRANCH  24  25
ENDBRANCH   7  24
TORSDOF 6
ENDMDL
