MODEL 1
REMARK VINA RESULT:    -9.251      0.000      0.000
REMARK INTER + INTRA:         -12.718
REMARK INTER:                 -12.495
REMARK INTRA:                  -0.222
REMARK UNBOUND:                -0.222
REMARK  Name = 25a.sdf
REMARK  7 active torsions:
REMARK  status: ('A' for Active; 'I' for Inactive)
REMARK    1  A    between atoms: N_7  and  C_10
REMARK    2  A    between atoms: C_9  and  C_18
REMARK    3  A    between atoms: C_10  and  C_11
REMARK    4  A    between atoms: N_19  and  N_20
REMARK    5  A    between atoms: C_21  and  C_23
REMARK    6  A    between atoms: C_25  and  O_29
REMARK    7  A    between atoms: C_27  and  O_30
REMARK                            x       y       z     vdW  Elec       q    Type
REMARK                         _______ _______ _______ _____ _____    ______ ____
ROOT
ATOM      1  C   UNL     1      -4.847   4.368 -22.834  0.00  0.00    -0.061 A 
ATOM      2  C   UNL     1      -4.086   3.534 -23.643  0.00  0.00    -0.060 A 
ATOM      3  C   UNL     1      -2.982   4.027 -24.354  0.00  0.00    -0.038 A 
ATOM      4  C   UNL     1      -2.673   5.395 -24.254  0.00  0.00    +0.050 A 
ATOM      5  C   UNL     1      -3.392   6.238 -23.392  0.00  0.00    +0.009 A 
ATOM      6  C   UNL     1      -4.496   5.710 -22.682  0.00  0.00    -0.052 A 
ATOM      7  N   UNL     1      -1.728   6.185 -24.893  0.00  0.00    -0.342 N 
ATOM      8  C   UNL     1      -1.777   7.459 -24.380  0.00  0.00    +0.015 A 
ATOM      9  C   UNL     1      -2.781   7.531 -23.435  0.00  0.00    +0.020 A 
ENDROOT
BRANCH   9  10
ATOM     10  C   UNL     1      -3.138   8.703 -22.655  0.00  0.00    +0.055 C 
ATOM     11  N   UNL     1      -4.039   9.520 -23.096  0.00  0.00    -0.187 NA
BRANCH  11  12
ATOM     12  N   UNL     1      -4.311  10.604 -22.300  0.00  0.00    -0.203 N 
ATOM     13  C   UNL     1      -3.725  11.834 -22.595  0.00  0.00    +0.263 C 
ATOM     14  O   UNL     1      -2.938  12.049 -23.505  0.00  0.00    -0.268 OA
ATOM     15  H   UNL     1      -4.915  10.514 -21.527  0.00  0.00    +0.000 HD
BRANCH  13  16
ATOM     16  C   UNL     1      -4.106  12.966 -21.695  0.00  0.00    +0.045 A 
ATOM     17  C   UNL     1      -3.712  14.274 -22.033  0.00  0.00    -0.008 A 
ATOM     18  C   UNL     1      -4.104  15.337 -21.219  0.00  0.00    +0.121 A 
ATOM     19  C   UNL     1      -4.883  15.121 -20.083  0.00  0.00    +0.021 A 
ATOM     20  C   UNL     1      -5.272  13.825 -19.769  0.00  0.00    +0.121 A 
ATOM     21  C   UNL     1      -4.894  12.749 -20.563  0.00  0.00    -0.008 A 
BRANCH  18  22
ATOM     22  O   UNL     1      -3.764  16.628 -21.499  0.00  0.00    -0.507 OA
ATOM     23  H   UNL     1      -4.432  17.256 -21.694  0.00  0.00    +0.000 HD
ENDBRANCH  18  22
BRANCH  20  24
ATOM     24  O   UNL     1      -6.050  13.553 -18.682  0.00  0.00    -0.507 OA
ATOM     25  H   UNL     1      -6.834  13.050 -18.782  0.00  0.00    +0.000 HD
ENDBRANCH  20  24
ENDBRANCH  13  16
ENDBRANCH  11  12
ENDBRANCH   9  10
BRANCH   7  26
ATOM     26  C   UNL     1      -0.900   5.821 -26.050  0.00  0.00    +0.048 C 
BRANCH  26  27
ATOM     27  C   UNL     1      -0.513   7.024 -26.877  0.00  0.00    -0.028 A 
ATOM     28  C   UNL     1       0.805   7.174 -27.332  0.00  0.00    -0.056 A 
ATOM     29  C   UNL     1       1.222   8.372 -27.913  0.00  0.00    -0.047 A 
ATOM     30  C   UNL     1       0.313   9.414 -28.075  0.00  0.00    +0.018 A 
ATOM     31  C   UNL     1      -1.027   9.240 -27.737  0.00  0.00    -0.047 A 
ATOM     32  C   UNL     1      -1.440   8.045 -27.141  0.00  0.00    -0.056 A 
ATOM     33 BR   UNL     1       0.918  11.098 -28.686  0.00  0.00    -0.050 Br
ENDBRANCH  26  27
ENDBRANCH   7  26
TORSDOF 7
ENDMDL
