MODEL 1
REMARK VINA RESULT:    -9.466      0.000      0.000
REMARK INTER + INTRA:         -12.871
REMARK INTER:                 -12.786
REMARK INTRA:                  -0.085
REMARK UNBOUND:                -0.085
REMARK  Name = 26a.sdf
REMARK  7 active torsions:
REMARK  status: ('A' for Active; 'I' for Inactive)
REMARK    1  A    between atoms: N_7  and  C_10
REMARK    2  A    between atoms: C_9  and  C_18
REMARK    3  A    between atoms: C_10  and  C_11
REMARK    4  A    between atoms: N_19  and  N_20
REMARK    5  A    between atoms: C_21  and  C_23
REMARK    6  A    between atoms: C_26  and  O_29
REMARK    7  A    between atoms: C_28  and  O_30
REMARK                            x       y       z     vdW  Elec       q    Type
REMARK                         _______ _______ _______ _____ _____    ______ ____
ROOT
ATOM      1  C   UNL     1      -4.859   4.498 -22.795  0.00  0.00    -0.061 A 
ATOM      2  C   UNL     1      -4.069   3.685 -23.599  0.00  0.00    -0.060 A 
ATOM      3  C   UNL     1      -3.033   4.222 -24.368  0.00  0.00    -0.038 A 
ATOM      4  C   UNL     1      -2.801   5.607 -24.304  0.00  0.00    +0.050 A 
ATOM      5  C   UNL     1      -3.554   6.438 -23.464  0.00  0.00    +0.009 A 
ATOM      6  C   UNL     1      -4.606   5.871 -22.712  0.00  0.00    -0.052 A 
ATOM      7  N   UNL     1      -1.904   6.418 -24.974  0.00  0.00    -0.342 N 
ATOM      8  C   UNL     1      -2.015   7.707 -24.518  0.00  0.00    +0.015 A 
ATOM      9  C   UNL     1      -3.025   7.762 -23.580  0.00  0.00    +0.020 A 
ENDROOT
BRANCH   9  10
ATOM     10  C   UNL     1      -3.447   8.948 -22.866  0.00  0.00    +0.055 C 
ATOM     11  N   UNL     1      -4.106   9.869 -23.490  0.00  0.00    -0.187 NA
BRANCH  11  12
ATOM     12  N   UNL     1      -4.445  10.949 -22.731  0.00  0.00    -0.203 N 
ATOM     13  C   UNL     1      -3.531  11.952 -22.471  0.00  0.00    +0.267 C 
ATOM     14  O   UNL     1      -2.373  11.977 -22.890  0.00  0.00    -0.268 OA
ATOM     15  H   UNL     1      -5.355  11.016 -22.362  0.00  0.00    +0.000 HD
BRANCH  13  16
ATOM     16  C   UNL     1      -4.020  13.075 -21.601  0.00  0.00    +0.080 A 
ATOM     17  C   UNL     1      -3.530  14.364 -21.875  0.00  0.00    -0.043 A 
ATOM     18  C   UNL     1      -3.921  15.462 -21.106  0.00  0.00    -0.019 A 
ATOM     19  C   UNL     1      -4.812  15.273 -20.056  0.00  0.00    +0.120 A 
ATOM     20  C   UNL     1      -5.319  14.012 -19.768  0.00  0.00    +0.022 A 
ATOM     21  C   UNL     1      -4.924  12.914 -20.538  0.00  0.00    +0.132 A 
BRANCH  19  22
ATOM     22  O   UNL     1      -5.215  16.310 -19.268  0.00  0.00    -0.507 OA
ATOM     23  H   UNL     1      -5.158  16.240 -18.335  0.00  0.00    +0.000 HD
ENDBRANCH  19  22
BRANCH  21  24
ATOM     24  O   UNL     1      -5.437  11.679 -20.224  0.00  0.00    -0.506 OA
ATOM     25  H   UNL     1      -6.341  11.594 -19.990  0.00  0.00    +0.000 HD
ENDBRANCH  21  24
ENDBRANCH  13  16
ENDBRANCH  11  12
ENDBRANCH   9  10
BRANCH   7  26
ATOM     26  C   UNL     1      -1.040   6.026 -26.085  0.00  0.00    +0.048 C 
BRANCH  26  27
ATOM     27  C   UNL     1      -0.540   7.224 -26.853  0.00  0.00    -0.028 A 
ATOM     28  C   UNL     1       0.787   7.277 -27.303  0.00  0.00    -0.056 A 
ATOM     29  C   UNL     1       1.285   8.430 -27.911  0.00  0.00    -0.047 A 
ATOM     30  C   UNL     1       0.453   9.533 -28.085  0.00  0.00    +0.018 A 
ATOM     31  C   UNL     1      -0.883   9.479 -27.694  0.00  0.00    -0.047 A 
ATOM     32  C   UNL     1      -1.378   8.326 -27.081  0.00  0.00    -0.056 A 
ATOM     33 BR   UNL     1       1.154  11.126 -28.822  0.00  0.00    -0.050 Br
ENDBRANCH  26  27
ENDBRANCH   7  26
TORSDOF 7
ENDMDL
