MODEL 1
REMARK VINA RESULT:    -8.790      0.000      0.000
REMARK INTER + INTRA:         -13.063
REMARK INTER:                 -11.873
REMARK INTRA:                  -1.190
REMARK UNBOUND:                -1.190
REMARK  Name = 26c.sdf
REMARK  7 active torsions:
REMARK  status: ('A' for Active; 'I' for Inactive)
REMARK    1  A    between atoms: N_7  and  C_10
REMARK    2  A    between atoms: C_9  and  C_18
REMARK    3  A    between atoms: C_10  and  C_11
REMARK    4  A    between atoms: N_19  and  N_20
REMARK    5  A    between atoms: C_21  and  C_23
REMARK    6  A    between atoms: C_26  and  O_29
REMARK    7  A    between atoms: C_28  and  O_30
REMARK                            x       y       z     vdW  Elec       q    Type
REMARK                         _______ _______ _______ _____ _____    ______ ____
ROOT
ATOM      1  C   UNL     1      -5.449   5.694 -21.988  0.00  0.00    -0.061 A 
ATOM      2  C   UNL     1      -4.684   4.755 -22.669  0.00  0.00    -0.060 A 
ATOM      3  C   UNL     1      -3.413   5.079 -23.158  0.00  0.00    -0.038 A 
ATOM      4  C   UNL     1      -2.924   6.380 -22.945  0.00  0.00    +0.050 A 
ATOM      5  C   UNL     1      -3.656   7.324 -22.210  0.00  0.00    +0.009 A 
ATOM      6  C   UNL     1      -4.941   6.972 -21.740  0.00  0.00    -0.052 A 
ATOM      7  N   UNL     1      -1.762   7.006 -23.358  0.00  0.00    -0.342 N 
ATOM      8  C   UNL     1      -1.702   8.268 -22.827  0.00  0.00    +0.015 A 
ATOM      9  C   UNL     1      -2.854   8.502 -22.103  0.00  0.00    +0.020 A 
ENDROOT
BRANCH   9  10
ATOM     10  C   UNL     1      -3.162   9.719 -21.382  0.00  0.00    +0.055 C 
ATOM     11  N   UNL     1      -4.083  10.508 -21.838  0.00  0.00    -0.187 NA
BRANCH  11  12
ATOM     12  N   UNL     1      -4.292  11.634 -21.092  0.00  0.00    -0.203 N 
ATOM     13  C   UNL     1      -4.200  12.896 -21.657  0.00  0.00    +0.267 C 
ATOM     14  O   UNL     1      -3.930  13.118 -22.834  0.00  0.00    -0.268 OA
ATOM     15  H   UNL     1      -4.512  11.548 -20.136  0.00  0.00    +0.000 HD
BRANCH  13  16
ATOM     16  C   UNL     1      -4.455  14.046 -20.725  0.00  0.00    +0.080 A 
ATOM     17  C   UNL     1      -3.687  15.210 -20.904  0.00  0.00    -0.043 A 
ATOM     18  C   UNL     1      -3.861  16.322 -20.074  0.00  0.00    -0.019 A 
ATOM     19  C   UNL     1      -4.810  16.273 -19.061  0.00  0.00    +0.120 A 
ATOM     20  C   UNL     1      -5.590  15.139 -18.868  0.00  0.00    +0.022 A 
ATOM     21  C   UNL     1      -5.413  14.026 -19.697  0.00  0.00    +0.132 A 
BRANCH  19  22
ATOM     22  O   UNL     1      -5.013  17.325 -18.218  0.00  0.00    -0.507 OA
ATOM     23  H   UNL     1      -4.308  17.907 -18.017  0.00  0.00    +0.000 HD
ENDBRANCH  19  22
BRANCH  21  24
ATOM     24  O   UNL     1      -6.192  12.918 -19.479  0.00  0.00    -0.506 OA
ATOM     25  H   UNL     1      -6.048  12.139 -19.979  0.00  0.00    +0.000 HD
ENDBRANCH  21  24
ENDBRANCH  13  16
ENDBRANCH  11  12
ENDBRANCH   9  10
BRANCH   7  26
ATOM     26  C   UNL     1      -0.786   6.499 -24.324  0.00  0.00    +0.048 C 
BRANCH  26  27
ATOM     27  C   UNL     1      -1.325   6.526 -25.734  0.00  0.00    -0.028 A 
ATOM     28  C   UNL     1      -1.816   5.354 -26.328  0.00  0.00    -0.055 A 
ATOM     29  C   UNL     1      -2.176   5.340 -27.676  0.00  0.00    -0.043 A 
ATOM     30  C   UNL     1      -2.068   6.504 -28.433  0.00  0.00    +0.041 A 
ATOM     31  C   UNL     1      -1.657   7.695 -27.840  0.00  0.00    -0.043 A 
ATOM     32  C   UNL     1      -1.289   7.707 -26.493  0.00  0.00    -0.055 A 
ATOM     33 CL   UNL     1      -2.413   6.459 -30.119  0.00  0.00    -0.084 Cl
ENDBRANCH  26  27
ENDBRANCH   7  26
TORSDOF 7
ENDMDL
