MODEL 1
REMARK VINA RESULT:    -9.042      0.000      0.000
REMARK INTER + INTRA:         -12.053
REMARK INTER:                 -11.949
REMARK INTRA:                  -0.103
REMARK UNBOUND:                -0.103
REMARK  Name = 27c.sdf
REMARK  6 active torsions:
REMARK  status: ('A' for Active; 'I' for Inactive)
REMARK    1  A    between atoms: N_7  and  C_10
REMARK    2  A    between atoms: C_9  and  C_18
REMARK    3  A    between atoms: C_10  and  C_11
REMARK    4  A    between atoms: N_19  and  N_20
REMARK    5  A    between atoms: C_21  and  C_23
REMARK    6  A    between atoms: C_26  and  N_29
REMARK                            x       y       z     vdW  Elec       q    Type
REMARK                         _______ _______ _______ _____ _____    ______ ____
ROOT
ATOM      1  C   UNL     1      -4.904   5.333 -22.235  0.00  0.00    -0.061 A 
ATOM      2  C   UNL     1      -4.604   4.122 -22.844  0.00  0.00    -0.060 A 
ATOM      3  C   UNL     1      -3.687   4.052 -23.898  0.00  0.00    -0.038 A 
ATOM      4  C   UNL     1      -3.070   5.240 -24.328  0.00  0.00    +0.050 A 
ATOM      5  C   UNL     1      -3.316   6.462 -23.691  0.00  0.00    +0.009 A 
ATOM      6  C   UNL     1      -4.257   6.505 -22.640  0.00  0.00    -0.052 A 
ATOM      7  N   UNL     1      -2.188   5.495 -25.363  0.00  0.00    -0.342 N 
ATOM      8  C   UNL     1      -1.813   6.816 -25.336  0.00  0.00    +0.015 A 
ATOM      9  C   UNL     1      -2.486   7.449 -24.306  0.00  0.00    +0.020 A 
ENDROOT
BRANCH   9  10
ATOM     10  C   UNL     1      -2.350   8.840 -23.931  0.00  0.00    +0.055 C 
ATOM     11  N   UNL     1      -3.206   9.711 -24.357  0.00  0.00    -0.187 NA
BRANCH  11  12
ATOM     12  N   UNL     1      -2.996  11.007 -23.962  0.00  0.00    -0.203 N 
ATOM     13  C   UNL     1      -3.665  11.498 -22.848  0.00  0.00    +0.263 C 
ATOM     14  O   UNL     1      -4.445  10.856 -22.152  0.00  0.00    -0.268 OA
ATOM     15  H   UNL     1      -2.377  11.585 -24.463  0.00  0.00    +0.000 HD
BRANCH  13  16
ATOM     16  C   UNL     1      -3.355  12.909 -22.471  0.00  0.00    +0.038 A 
ATOM     17  C   UNL     1      -2.180  13.556 -22.866  0.00  0.00    -0.048 A 
ATOM     18  C   UNL     1      -1.943  14.880 -22.474  0.00  0.00    -0.040 A 
ATOM     19  C   UNL     1      -2.852  15.562 -21.660  0.00  0.00    +0.025 A 
ATOM     20  C   UNL     1      -4.062  14.942 -21.345  0.00  0.00    -0.040 A 
ATOM     21  C   UNL     1      -4.308  13.619 -21.730  0.00  0.00    -0.048 A 
BRANCH  19  22
ATOM     22  N   UNL     1      -2.660  16.917 -21.370  0.00  0.00    -0.358 N 
ATOM     23  H   UNL     1      -3.019  17.298 -20.536  0.00  0.00    +0.000 HD
ATOM     24  H   UNL     1      -2.165  17.490 -21.999  0.00  0.00    +0.000 HD
ENDBRANCH  19  22
ENDBRANCH  13  16
ENDBRANCH  11  12
ENDBRANCH   9  10
BRANCH   7  25
ATOM     25  C   UNL     1      -1.790   4.562 -26.418  0.00  0.00    +0.048 C 
BRANCH  25  26
ATOM     26  C   UNL     1      -0.868   5.212 -27.421  0.00  0.00    -0.028 A 
ATOM     27  C   UNL     1       0.416   4.695 -27.648  0.00  0.00    -0.055 A 
ATOM     28  C   UNL     1       1.323   5.378 -28.461  0.00  0.00    -0.043 A 
ATOM     29  C   UNL     1       0.943   6.571 -29.069  0.00  0.00    +0.041 A 
ATOM     30  C   UNL     1      -0.351   7.059 -28.916  0.00  0.00    -0.043 A 
ATOM     31  C   UNL     1      -1.256   6.380 -28.095  0.00  0.00    -0.055 A 
ATOM     32 CL   UNL     1       2.092   7.463 -29.989  0.00  0.00    -0.084 Cl
ENDBRANCH  25  26
ENDBRANCH   7  25
TORSDOF 6
ENDMDL
