MODEL 1
REMARK VINA RESULT:    -8.007      0.000      0.000
REMARK INTER + INTRA:         -10.590
REMARK INTER:                  -9.879
REMARK INTRA:                  -0.711
REMARK UNBOUND:                -0.711
REMARK  Name = 2a.sdf
REMARK  4 active torsions:
REMARK  status: ('A' for Active; 'I' for Inactive)
REMARK    1  A    between atoms: N_7  and  C_12
REMARK    2  A    between atoms: C_9  and  C_10
REMARK    3  A    between atoms: C_11  and  C_20
REMARK    4  A    between atoms: C_12  and  C_13
REMARK                            x       y       z     vdW  Elec       q    Type
REMARK                         _______ _______ _______ _____ _____    ______ ____
ROOT
ATOM      1  C   UNL     1      -4.068   4.195 -23.508  0.00  0.00    -0.061 A 
ATOM      2  C   UNL     1      -4.383   5.051 -22.465  0.00  0.00    -0.060 A 
ATOM      3  C   UNL     1      -3.759   6.301 -22.345  0.00  0.00    -0.038 A 
ATOM      4  C   UNL     1      -2.730   6.651 -23.242  0.00  0.00    +0.050 A 
ATOM      5  C   UNL     1      -2.441   5.817 -24.337  0.00  0.00    +0.007 A 
ATOM      6  C   UNL     1      -3.134   4.587 -24.468  0.00  0.00    -0.052 A 
ATOM      7  N   UNL     1      -1.854   7.727 -23.302  0.00  0.00    -0.342 N 
ATOM      8  C   UNL     1      -1.103   7.631 -24.462  0.00  0.00    +0.013 A 
ATOM      9  C   UNL     1      -1.459   6.483 -25.131  0.00  0.00    +0.000 A 
ENDROOT
BRANCH   9  10
ATOM     10  C   UNL     1      -0.957   6.027 -26.395  0.00  0.00    -0.046 C 
ATOM     11  C   UNL     1       0.013   6.605 -27.116  0.00  0.00    +0.023 C 
BRANCH  11  12
ATOM     12  C   UNL     1       0.557   6.164 -28.419  0.00  0.00    +0.330 C 
ATOM     13  O   UNL     1       1.200   4.978 -28.425  0.00  0.00    -0.478 OA
ATOM     14  O   UNL     1       0.392   6.821 -29.421  0.00  0.00    -0.246 OA
ENDBRANCH  11  12
ENDBRANCH   9  10
BRANCH   7  15
ATOM     15  C   UNL     1      -1.567   8.755 -22.282  0.00  0.00    +0.048 C 
BRANCH  15  16
ATOM     16  C   UNL     1      -2.499   9.944 -22.326  0.00  0.00    -0.028 A 
ATOM     17  C   UNL     1      -2.208  11.040 -23.152  0.00  0.00    -0.056 A 
ATOM     18  C   UNL     1      -2.888  12.251 -22.988  0.00  0.00    -0.047 A 
ATOM     19  C   UNL     1      -3.907  12.345 -22.043  0.00  0.00    +0.018 A 
ATOM     20  C   UNL     1      -4.309  11.223 -21.321  0.00  0.00    -0.047 A 
ATOM     21  C   UNL     1      -3.607  10.022 -21.464  0.00  0.00    -0.056 A 
ATOM     22 BR   UNL     1      -4.673  14.029 -21.654  0.00  0.00    -0.050 Br
ENDBRANCH  15  16
ENDBRANCH   7  15
TORSDOF 4
ENDMDL
