MODEL 1
REMARK VINA RESULT:    -7.054      0.000      0.000
REMARK INTER + INTRA:          -8.729
REMARK INTER:                  -8.498
REMARK INTRA:                  -0.231
REMARK UNBOUND:                -0.231
REMARK  Name = 3.sdf
REMARK  4 active torsions:
REMARK  status: ('A' for Active; 'I' for Inactive)
REMARK    1  A    between atoms: CG_9  and  CB_10
REMARK    2  A    between atoms: CB_10  and  CA_11
REMARK    3  A    between atoms: CA_11  and  C_12
REMARK    4  A    between atoms: CA_11  and  N_15
REMARK                            x       y       z     vdW  Elec       q    Type
REMARK                         _______ _______ _______ _____ _____    ______ ____
ROOT
ATOM      1  CZ3 TRP A   1      -0.750   6.074 -26.441  0.00  0.00    -0.061 A 
ATOM      2  CH2 TRP A   1      -1.036   4.796 -26.915  0.00  0.00    -0.060 A 
ATOM      3  CZ2 TRP A   1      -1.892   3.945 -26.212  0.00  0.00    -0.038 A 
ATOM      4  CE2 TRP A   1      -2.460   4.428 -25.027  0.00  0.00    +0.047 A 
ATOM      5  CD2 TRP A   1      -2.219   5.712 -24.537  0.00  0.00    +0.003 A 
ATOM      6  CE3 TRP A   1      -1.335   6.545 -25.257  0.00  0.00    -0.052 A 
ATOM      7  NE1 TRP A   1      -3.317   3.816 -24.147  0.00  0.00    -0.360 N 
ATOM      8  CD1 TRP A   1      -3.669   4.679 -23.148  0.00  0.00    +0.006 A 
ATOM      9  CG  TRP A   1      -3.015   5.880 -23.351  0.00  0.00    -0.020 A 
ATOM     10  HE1 TRP A   1      -3.633   2.886 -24.226  0.00  0.00    +0.000 HD
ENDROOT
BRANCH   9  11
ATOM     11  CB  TRP A   1      -3.152   7.138 -22.542  0.00  0.00    -0.000 C 
BRANCH  11  12
ATOM     12  CA  TRP A   1      -4.585   7.511 -22.138  0.00  0.00    +0.107 C 
BRANCH  12  13
ATOM     13  N   TRP A   1      -4.885   8.931 -22.463  0.00  0.00    -0.318 N 
ATOM     14  H1  TRP A   1      -4.132   9.526 -22.116  0.00  0.00    +0.000 HD
ATOM     15  H2  TRP A   1      -5.763   9.203 -22.019  0.00  0.00    +0.000 HD
ATOM     16  H3  TRP A   1      -4.967   9.040 -23.473  0.00  0.00    +0.000 HD
ENDBRANCH  12  13
BRANCH  12  17
ATOM     17  C   TRP A   1      -4.866   7.254 -20.650  0.00  0.00    +0.322 C 
ATOM     18  O   TRP A   1      -4.517   8.283 -19.836  0.00  0.00    -0.480 OA
ATOM     19  OXT TRP A   1      -5.446   6.264 -20.227  0.00  0.00    -0.249 OA
ENDBRANCH  12  17
ENDBRANCH  11  12
ENDBRANCH   9  11
TORSDOF 4
ENDMDL
