MODEL 1
REMARK VINA RESULT:    -5.849      0.000      0.000
REMARK INTER + INTRA:          -6.411
REMARK INTER:                  -6.362
REMARK INTRA:                  -0.049
REMARK UNBOUND:                -0.049
REMARK  Name = 4.sdf
REMARK  2 active torsions:
REMARK  status: ('A' for Active; 'I' for Inactive)
REMARK    1  A    between atoms: C_9  and  C_10
REMARK    2  A    between atoms: C_10  and  O_11
REMARK                            x       y       z     vdW  Elec       q    Type
REMARK                         _______ _______ _______ _____ _____    ______ ____
ROOT
ATOM      1  C   UNL     1      -2.213   6.198 -24.468  0.00  0.00    -0.061 A 
ATOM      2  C   UNL     1      -2.542   4.947 -23.953  0.00  0.00    -0.060 A 
ATOM      3  C   UNL     1      -3.461   4.821 -22.908  0.00  0.00    -0.038 A 
ATOM      4  C   UNL     1      -4.032   5.993 -22.396  0.00  0.00    +0.047 A 
ATOM      5  C   UNL     1      -3.715   7.265 -22.881  0.00  0.00    +0.005 A 
ATOM      6  C   UNL     1      -2.792   7.361 -23.944  0.00  0.00    -0.052 A 
ATOM      7  N   UNL     1      -4.947   6.159 -21.384  0.00  0.00    -0.360 N 
ATOM      8  C   UNL     1      -5.208   7.488 -21.202  0.00  0.00    +0.008 A 
ATOM      9  C   UNL     1      -4.459   8.216 -22.106  0.00  0.00    +0.003 A 
ATOM     10  H   UNL     1      -5.353   5.428 -20.866  0.00  0.00    +0.000 HD
ENDROOT
BRANCH   9  11
ATOM     11  C   UNL     1      -4.423   9.703 -22.214  0.00  0.00    +0.071 C 
BRANCH  11  12
ATOM     12  O   UNL     1      -5.247  10.179 -23.274  0.00  0.00    -0.390 OA
ATOM     13  H   UNL     1      -5.033   9.700 -24.090  0.00  0.00    +0.000 HD
ENDBRANCH  11  12
ENDBRANCH   9  11
TORSDOF 2
ENDMDL
