MODEL 1
REMARK VINA RESULT:    -7.219      0.000      0.000
REMARK INTER + INTRA:          -9.328
REMARK INTER:                  -8.696
REMARK INTRA:                  -0.632
REMARK UNBOUND:                -0.632
REMARK  Name = 4a.pdb
REMARK  4 active torsions:
REMARK  status: ('A' for Active; 'I' for Inactive)
REMARK    1  A    between atoms: N_7  and  C_11
REMARK    2  A    between atoms: C_9  and  C_10
REMARK    3  A    between atoms: C_10  and  O_18
REMARK    4  A    between atoms: C_11  and  C_12
REMARK                            x       y       z     vdW  Elec       q    Type
REMARK                         _______ _______ _______ _____ _____    ______ ____
ROOT
ATOM      1  C   UNL     1      -5.500   6.640 -21.208  0.00  0.00    -0.061 A 
ATOM      2  C   UNL     1      -4.586   5.713 -21.692  0.00  0.00    -0.060 A 
ATOM      3  C   UNL     1      -3.372   6.125 -22.246  0.00  0.00    -0.038 A 
ATOM      4  C   UNL     1      -3.100   7.503 -22.313  0.00  0.00    +0.050 A 
ATOM      5  C   UNL     1      -4.002   8.455 -21.827  0.00  0.00    +0.005 A 
ATOM      6  C   UNL     1      -5.219   8.010 -21.266  0.00  0.00    -0.052 A 
ATOM      7  N   UNL     1      -2.016   8.194 -22.819  0.00  0.00    -0.342 N 
ATOM      8  C   UNL     1      -2.200   9.543 -22.641  0.00  0.00    +0.011 A 
ATOM      9  C   UNL     1      -3.424   9.749 -22.031  0.00  0.00    +0.003 A 
ENDROOT
BRANCH   9  10
ATOM     10  C   UNL     1      -4.011  11.066 -21.656  0.00  0.00    +0.071 C 
BRANCH  10  11
ATOM     11  O   UNL     1      -4.470  11.776 -22.803  0.00  0.00    -0.390 OA
ATOM     12  H   UNL     1      -4.428  11.196 -23.579  0.00  0.00    +0.000 HD
ENDBRANCH  10  11
ENDBRANCH   9  10
BRANCH   7  13
ATOM     13  C   UNL     1      -0.828   7.604 -23.429  0.00  0.00    +0.048 C 
BRANCH  13  14
ATOM     14  C   UNL     1      -1.056   7.312 -24.894  0.00  0.00    -0.028 A 
ATOM     15  C   UNL     1      -1.745   5.781 -26.655  0.00  0.00    -0.047 A 
ATOM     16  C   UNL     1      -1.674   6.819 -27.582  0.00  0.00    +0.018 A 
ATOM     17  C   UNL     1      -1.269   8.092 -27.186  0.00  0.00    -0.047 A 
ATOM     18  C   UNL     1      -0.961   8.338 -25.846  0.00  0.00    -0.056 A 
ATOM     19 BR   UNL     1      -2.161   6.504 -29.380  0.00  0.00    -0.050 Br
ATOM     20  C   UNL     1      -1.428   6.028 -25.318  0.00  0.00    -0.056 A 
ENDBRANCH  13  14
ENDBRANCH   7  13
TORSDOF 4
ENDMDL
