MODEL 1
REMARK VINA RESULT:    -7.649      0.000      0.000
REMARK INTER + INTRA:         -10.723
REMARK INTER:                  -9.885
REMARK INTRA:                  -0.838
REMARK UNBOUND:                -0.838
REMARK  Name = 5a.sdf
REMARK  6 active torsions:
REMARK  status: ('A' for Active; 'I' for Inactive)
REMARK    1  A    between atoms: N_7  and  C_12
REMARK    2  A    between atoms: C_9  and  C_10
REMARK    3  A    between atoms: C_11  and  C_20
REMARK    4  A    between atoms: C_12  and  C_13
REMARK    5  A    between atoms: C_20  and  O_21
REMARK    6  A    between atoms: O_21  and  C_23
REMARK                            x       y       z     vdW  Elec       q    Type
REMARK                         _______ _______ _______ _____ _____    ______ ____
ROOT
ATOM      1  C   UNL     1      -2.665   4.202 -24.584  0.00  0.00    -0.061 A 
ATOM      2  C   UNL     1      -2.108   3.984 -25.841  0.00  0.00    -0.060 A 
ATOM      3  C   UNL     1      -1.552   5.043 -26.578  0.00  0.00    -0.038 A 
ATOM      4  C   UNL     1      -1.591   6.343 -26.031  0.00  0.00    +0.050 A 
ATOM      5  C   UNL     1      -2.092   6.566 -24.738  0.00  0.00    +0.007 A 
ATOM      6  C   UNL     1      -2.639   5.478 -24.021  0.00  0.00    -0.052 A 
ATOM      7  N   UNL     1      -1.223   7.583 -26.533  0.00  0.00    -0.342 N 
ATOM      8  C   UNL     1      -1.387   8.546 -25.550  0.00  0.00    +0.013 A 
ATOM      9  C   UNL     1      -1.913   7.949 -24.422  0.00  0.00    +0.000 A 
ENDROOT
BRANCH   9  10
ATOM     10  C   UNL     1      -2.233   8.564 -23.155  0.00  0.00    -0.046 C 
ATOM     11  C   UNL     1      -3.454   8.879 -22.696  0.00  0.00    +0.023 C 
BRANCH  11  12
ATOM     12  C   UNL     1      -3.796   9.543 -21.402  0.00  0.00    +0.332 C 
ATOM     13  O   UNL     1      -3.761  10.754 -21.292  0.00  0.00    -0.246 OA
BRANCH  12  14
ATOM     14  O   UNL     1      -4.124   8.675 -20.410  0.00  0.00    -0.465 OA
ATOM     15  C   UNL     1      -4.971   7.593 -20.822  0.00  0.00    +0.082 C 
ENDBRANCH  12  14
ENDBRANCH  11  12
ENDBRANCH   9  10
BRANCH   7  16
ATOM     16  C   UNL     1      -0.866   7.901 -27.923  0.00  0.00    +0.048 C 
BRANCH  16  17
ATOM     17  C   UNL     1       0.566   7.543 -28.241  0.00  0.00    -0.028 A 
ATOM     18  C   UNL     1       1.617   8.350 -27.780  0.00  0.00    -0.056 A 
ATOM     19  C   UNL     1       2.917   8.157 -28.251  0.00  0.00    -0.047 A 
ATOM     20  C   UNL     1       3.179   7.133 -29.156  0.00  0.00    +0.018 A 
ATOM     21  C   UNL     1       2.170   6.249 -29.531  0.00  0.00    -0.047 A 
ATOM     22  C   UNL     1       0.867   6.451 -29.070  0.00  0.00    -0.056 A 
ATOM     23 BR   UNL     1       4.893   6.988 -29.938  0.00  0.00    -0.050 Br
ENDBRANCH  16  17
ENDBRANCH   7  16
TORSDOF 5
ENDMDL
