MODEL 1
REMARK VINA RESULT:    -6.559      0.000      0.000
REMARK INTER + INTRA:          -7.904
REMARK INTER:                  -7.709
REMARK INTRA:                  -0.195
REMARK UNBOUND:                -0.195
REMARK  Name = 7.sdf
REMARK  4 active torsions:
REMARK  status: ('A' for Active; 'I' for Inactive)
REMARK    1  A    between atoms: C_9  and  C_10
REMARK    2  A    between atoms: C_10  and  C_11
REMARK    3  A    between atoms: C_11  and  O_13
REMARK    4  A    between atoms: O_13  and  C_14
REMARK                            x       y       z     vdW  Elec       q    Type
REMARK                         _______ _______ _______ _____ _____    ______ ____
ROOT
ATOM      1  C   UNL     1      -0.778   6.325 -26.128  0.00  0.00    -0.061 A 
ATOM      2  C   UNL     1      -0.992   5.224 -26.955  0.00  0.00    -0.060 A 
ATOM      3  C   UNL     1      -1.851   4.193 -26.568  0.00  0.00    -0.038 A 
ATOM      4  C   UNL     1      -2.494   4.312 -25.330  0.00  0.00    +0.047 A 
ATOM      5  C   UNL     1      -2.317   5.408 -24.485  0.00  0.00    +0.003 A 
ATOM      6  C   UNL     1      -1.432   6.429 -24.894  0.00  0.00    -0.052 A 
ATOM      7  N   UNL     1      -3.372   3.457 -24.706  0.00  0.00    -0.360 N 
ATOM      8  C   UNL     1      -3.789   3.990 -23.518  0.00  0.00    +0.006 A 
ATOM      9  C   UNL     1      -3.159   5.209 -23.340  0.00  0.00    -0.012 A 
ATOM     10  H   UNL     1      -3.660   2.586 -25.064  0.00  0.00    +0.000 HD
ENDROOT
BRANCH   9  11
ATOM     11  C   UNL     1      -3.370   6.150 -22.195  0.00  0.00    +0.072 C 
BRANCH  11  12
ATOM     12  C   UNL     1      -4.229   7.353 -22.527  0.00  0.00    +0.311 C 
ATOM     13  O   UNL     1      -4.148   8.066 -23.518  0.00  0.00    -0.250 OA
BRANCH  12  14
ATOM     14  O   UNL     1      -5.125   7.541 -21.508  0.00  0.00    -0.468 OA
ATOM     15  C   UNL     1      -5.222   6.457 -20.581  0.00  0.00    +0.082 C 
ENDBRANCH  12  14
ENDBRANCH  11  12
ENDBRANCH   9  11
TORSDOF 3
ENDMDL
