MODEL 1
REMARK VINA RESULT:    -8.190      0.000      0.000
REMARK INTER + INTRA:         -11.158
REMARK INTER:                 -10.584
REMARK INTRA:                  -0.574
REMARK UNBOUND:                -0.574
REMARK  Name = 7c.sdf
REMARK  6 active torsions:
REMARK  status: ('A' for Active; 'I' for Inactive)
REMARK    1  A    between atoms: N_7  and  C_12
REMARK    2  A    between atoms: C_9  and  C_10
REMARK    3  A    between atoms: C_10  and  C_11
REMARK    4  A    between atoms: C_11  and  O_21
REMARK    5  A    between atoms: C_12  and  C_13
REMARK    6  A    between atoms: O_21  and  C_22
REMARK                            x       y       z     vdW  Elec       q    Type
REMARK                         _______ _______ _______ _____ _____    ______ ____
ROOT
ATOM      1  C   UNL     1      -5.038   4.563 -22.828  0.00  0.00    -0.061 A 
ATOM      2  C   UNL     1      -4.998   5.723 -22.063  0.00  0.00    -0.060 A 
ATOM      3  C   UNL     1      -3.968   6.656 -22.223  0.00  0.00    -0.038 A 
ATOM      4  C   UNL     1      -2.977   6.396 -23.185  0.00  0.00    +0.050 A 
ATOM      5  C   UNL     1      -3.023   5.257 -23.996  0.00  0.00    +0.004 A 
ATOM      6  C   UNL     1      -4.063   4.323 -23.800  0.00  0.00    -0.052 A 
ATOM      7  N   UNL     1      -1.833   7.089 -23.534  0.00  0.00    -0.342 N 
ATOM      8  C   UNL     1      -1.209   6.464 -24.585  0.00  0.00    +0.010 A 
ATOM      9  C   UNL     1      -1.919   5.322 -24.904  0.00  0.00    -0.012 A 
ENDROOT
BRANCH   9  10
ATOM     10  C   UNL     1      -1.593   4.352 -25.993  0.00  0.00    +0.072 C 
BRANCH  10  11
ATOM     11  C   UNL     1      -1.131   5.020 -27.271  0.00  0.00    +0.311 C 
ATOM     12  O   UNL     1       0.002   5.026 -27.728  0.00  0.00    -0.250 OA
BRANCH  11  13
ATOM     13  O   UNL     1      -2.200   5.647 -27.855  0.00  0.00    -0.468 OA
ATOM     14  C   UNL     1      -1.833   6.687 -28.761  0.00  0.00    +0.082 C 
ENDBRANCH  11  13
ENDBRANCH  10  11
ENDBRANCH   9  10
BRANCH   7  15
ATOM     15  C   UNL     1      -1.292   8.264 -22.856  0.00  0.00    +0.048 C 
BRANCH  15  16
ATOM     16  C   UNL     1      -1.618   9.529 -23.611  0.00  0.00    -0.028 A 
ATOM     17  C   UNL     1      -1.335   9.634 -24.979  0.00  0.00    -0.055 A 
ATOM     18  C   UNL     1      -1.519  10.844 -25.651  0.00  0.00    -0.043 A 
ATOM     19  C   UNL     1      -1.996  11.953 -24.960  0.00  0.00    +0.041 A 
ATOM     20  C   UNL     1      -2.330  11.854 -23.612  0.00  0.00    -0.043 A 
ATOM     21  C   UNL     1      -2.145  10.645 -22.939  0.00  0.00    -0.055 A 
ATOM     22 CL   UNL     1      -2.154  13.463 -25.770  0.00  0.00    -0.084 Cl
ENDBRANCH  15  16
ENDBRANCH   7  15
TORSDOF 5
ENDMDL
