MODEL 1
REMARK VINA RESULT:    -7.921      0.000      0.000
REMARK INTER + INTRA:          -9.673
REMARK INTER:                  -9.310
REMARK INTRA:                  -0.363
REMARK UNBOUND:                -0.363
REMARK  Name = 8.sdf
REMARK  3 active torsions:
REMARK  status: ('A' for Active; 'I' for Inactive)
REMARK    1  A    between atoms: C_9  and  C_10
REMARK    2  A    between atoms: N_11  and  N_12
REMARK    3  A    between atoms: C_13  and  C_15
REMARK                            x       y       z     vdW  Elec       q    Type
REMARK                         _______ _______ _______ _____ _____    ______ ____
ROOT
ATOM      1  C   UNL     1      -3.005   7.933 -22.732  0.00  0.00    +0.055 C 
ATOM      2  N   UNL     1      -3.589   8.872 -23.401  0.00  0.00    -0.187 NA
ENDROOT
BRANCH   1  11
ATOM      3  C   UNL     1      -0.880   5.988 -26.452  0.00  0.00    -0.061 A 
ATOM      4  C   UNL     1      -1.168   4.630 -26.562  0.00  0.00    -0.060 A 
ATOM      5  C   UNL     1      -2.010   3.999 -25.642  0.00  0.00    -0.038 A 
ATOM      6  C   UNL     1      -2.542   4.778 -24.608  0.00  0.00    +0.047 A 
ATOM      7  C   UNL     1      -2.272   6.141 -24.465  0.00  0.00    +0.008 A 
ATOM      8  C   UNL     1      -1.425   6.754 -25.413  0.00  0.00    -0.052 A 
ATOM      9  N   UNL     1      -3.381   4.418 -23.579  0.00  0.00    -0.360 N 
ATOM     10  C   UNL     1      -3.642   5.500 -22.788  0.00  0.00    +0.011 A 
ATOM     11  C   UNL     1      -2.974   6.598 -23.302  0.00  0.00    +0.020 A 
ATOM     12  H   UNL     1      -3.741   3.513 -23.435  0.00  0.00    +0.000 HD
ENDBRANCH   1  11
BRANCH   2  13
ATOM     13  N   UNL     1      -3.619  10.123 -22.853  0.00  0.00    -0.203 N 
ATOM     14  C   UNL     1      -2.872  11.123 -23.464  0.00  0.00    +0.263 C 
ATOM     15  O   UNL     1      -2.193  10.971 -24.477  0.00  0.00    -0.268 OA
ATOM     16  H   UNL     1      -4.154  10.310 -22.048  0.00  0.00    +0.000 HD
BRANCH  14  17
ATOM     17  C   UNL     1      -2.929  12.479 -22.847  0.00  0.00    +0.038 A 
ATOM     18  C   UNL     1      -1.921  13.434 -23.027  0.00  0.00    -0.049 A 
ATOM     19  C   UNL     1      -2.057  14.709 -22.462  0.00  0.00    -0.047 A 
ATOM     20  C   UNL     1      -3.198  15.028 -21.725  0.00  0.00    +0.018 A 
ATOM     21  C   UNL     1      -4.210  14.088 -21.546  0.00  0.00    -0.047 A 
ATOM     22  C   UNL     1      -4.076  12.817 -22.112  0.00  0.00    -0.049 A 
ATOM     23 BR   UNL     1      -3.384  16.756 -20.984  0.00  0.00    -0.050 Br
ENDBRANCH  14  17
ENDBRANCH   2  13
TORSDOF 3
ENDMDL
