MODEL 1
REMARK VINA RESULT:    -8.376      0.000      0.000
REMARK INTER + INTRA:         -11.725
REMARK INTER:                 -10.824
REMARK INTRA:                  -0.901
REMARK UNBOUND:                -0.901
REMARK  Name = 8a.sdf
REMARK  5 active torsions:
REMARK  status: ('A' for Active; 'I' for Inactive)
REMARK    1  A    between atoms: N_7  and  C_12
REMARK    2  A    between atoms: C_9  and  C_10
REMARK    3  A    between atoms: N_11  and  N_20
REMARK    4  A    between atoms: C_12  and  C_13
REMARK    5  A    between atoms: C_21  and  C_23
REMARK                            x       y       z     vdW  Elec       q    Type
REMARK                         _______ _______ _______ _____ _____    ______ ____
ROOT
ATOM      1  C   UNL     1      -2.045   4.744 -24.733  0.00  0.00    -0.061 A 
ATOM      2  C   UNL     1      -1.502   4.123 -25.851  0.00  0.00    -0.060 A 
ATOM      3  C   UNL     1      -0.956   4.874 -26.897  0.00  0.00    -0.038 A 
ATOM      4  C   UNL     1      -0.958   6.275 -26.786  0.00  0.00    +0.050 A 
ATOM      5  C   UNL     1      -1.459   6.920 -25.647  0.00  0.00    +0.009 A 
ATOM      6  C   UNL     1      -2.022   6.136 -24.616  0.00  0.00    -0.052 A 
ATOM      7  N   UNL     1      -0.541   7.263 -27.657  0.00  0.00    -0.342 N 
ATOM      8  C   UNL     1      -0.691   8.495 -27.069  0.00  0.00    +0.015 A 
ATOM      9  C   UNL     1      -1.250   8.325 -25.818  0.00  0.00    +0.020 A 
ENDROOT
BRANCH   9  10
ATOM     10  C   UNL     1      -1.555   9.375 -24.874  0.00  0.00    +0.055 C 
ATOM     11  N   UNL     1      -2.569  10.155 -25.078  0.00  0.00    -0.187 NA
BRANCH  11  12
ATOM     12  N   UNL     1      -2.778  11.124 -24.138  0.00  0.00    -0.203 N 
ATOM     13  C   UNL     1      -2.337  12.418 -24.382  0.00  0.00    +0.263 C 
ATOM     14  O   UNL     1      -1.769  12.794 -25.398  0.00  0.00    -0.268 OA
ATOM     15  H   UNL     1      -3.237  10.906 -23.295  0.00  0.00    +0.000 HD
BRANCH  13  16
ATOM     16  C   UNL     1      -2.633  13.410 -23.307  0.00  0.00    +0.038 A 
ATOM     17  C   UNL     1      -1.841  14.543 -23.085  0.00  0.00    -0.049 A 
ATOM     18  C   UNL     1      -2.167  15.437 -22.060  0.00  0.00    -0.047 A 
ATOM     19  C   UNL     1      -3.292  15.204 -21.266  0.00  0.00    +0.018 A 
ATOM     20  C   UNL     1      -4.099  14.094 -21.492  0.00  0.00    -0.047 A 
ATOM     21  C   UNL     1      -3.773  13.200 -22.516  0.00  0.00    -0.049 A 
ATOM     22 BR   UNL     1      -3.725  16.413 -19.880  0.00  0.00    -0.050 Br
ENDBRANCH  13  16
ENDBRANCH  11  12
ENDBRANCH   9  10
BRANCH   7  23
ATOM     23  C   UNL     1      -0.105   7.070 -29.040  0.00  0.00    +0.048 C 
BRANCH  23  24
ATOM     24  C   UNL     1       1.381   6.828 -29.130  0.00  0.00    -0.028 A 
ATOM     25  C   UNL     1       2.287   7.890 -28.993  0.00  0.00    -0.056 A 
ATOM     26  C   UNL     1       3.654   7.685 -29.183  0.00  0.00    -0.047 A 
ATOM     27  C   UNL     1       4.126   6.414 -29.498  0.00  0.00    +0.018 A 
ATOM     28  C   UNL     1       3.247   5.337 -29.586  0.00  0.00    -0.047 A 
ATOM     29  C   UNL     1       1.878   5.543 -29.402  0.00  0.00    -0.056 A 
ATOM     30 BR   UNL     1       5.967   6.155 -29.840  0.00  0.00    -0.050 Br
ENDBRANCH  23  24
ENDBRANCH   7  23
TORSDOF 5
ENDMDL
