MODEL 1
REMARK VINA RESULT:    -9.304      0.000      0.000
REMARK INTER + INTRA:         -12.535
REMARK INTER:                 -12.024
REMARK INTRA:                  -0.511
REMARK UNBOUND:                -0.511
REMARK  Name = 8b.sdf
REMARK  5 active torsions:
REMARK  status: ('A' for Active; 'I' for Inactive)
REMARK    1  A    between atoms: N_7  and  C_12
REMARK    2  A    between atoms: C_9  and  C_10
REMARK    3  A    between atoms: N_11  and  N_19
REMARK    4  A    between atoms: C_12  and  C_13
REMARK    5  A    between atoms: C_20  and  C_22
REMARK                            x       y       z     vdW  Elec       q    Type
REMARK                         _______ _______ _______ _____ _____    ______ ____
ROOT
ATOM      1  C   UNL     1      -5.068   5.269 -22.285  0.00  0.00    -0.061 A 
ATOM      2  C   UNL     1      -4.645   4.065 -22.838  0.00  0.00    -0.060 A 
ATOM      3  C   UNL     1      -3.604   4.027 -23.773  0.00  0.00    -0.038 A 
ATOM      4  C   UNL     1      -2.992   5.238 -24.143  0.00  0.00    +0.050 A 
ATOM      5  C   UNL     1      -3.366   6.454 -23.555  0.00  0.00    +0.009 A 
ATOM      6  C   UNL     1      -4.427   6.463 -22.623  0.00  0.00    -0.052 A 
ATOM      7  N   UNL     1      -2.007   5.526 -25.070  0.00  0.00    -0.342 N 
ATOM      8  C   UNL     1      -1.698   6.863 -25.016  0.00  0.00    +0.015 A 
ATOM      9  C   UNL     1      -2.505   7.470 -24.074  0.00  0.00    +0.020 A 
ENDROOT
BRANCH   9  10
ATOM     10  C   UNL     1      -2.472   8.869 -23.700  0.00  0.00    +0.055 C 
ATOM     11  N   UNL     1      -3.457   9.643 -24.025  0.00  0.00    -0.187 NA
BRANCH  11  12
ATOM     12  N   UNL     1      -3.340  10.950 -23.648  0.00  0.00    -0.203 N 
ATOM     13  C   UNL     1      -3.889  11.364 -22.438  0.00  0.00    +0.263 C 
ATOM     14  O   UNL     1      -4.477  10.641 -21.644  0.00  0.00    -0.268 OA
ATOM     15  H   UNL     1      -2.870  11.593 -24.226  0.00  0.00    +0.000 HD
BRANCH  13  16
ATOM     16  C   UNL     1      -3.689  12.803 -22.100  0.00  0.00    +0.038 A 
ATOM     17  C   UNL     1      -2.623  13.557 -22.609  0.00  0.00    -0.049 A 
ATOM     18  C   UNL     1      -2.476  14.900 -22.246  0.00  0.00    -0.047 A 
ATOM     19  C   UNL     1      -3.399  15.492 -21.383  0.00  0.00    +0.018 A 
ATOM     20  C   UNL     1      -4.478  14.761 -20.894  0.00  0.00    -0.047 A 
ATOM     21  C   UNL     1      -4.626  13.419 -21.256  0.00  0.00    -0.049 A 
ATOM     22 BR   UNL     1      -3.186  17.302 -20.880  0.00  0.00    -0.050 Br
ENDBRANCH  13  16
ENDBRANCH  11  12
ENDBRANCH   9  10
BRANCH   7  23
ATOM     23  C   UNL     1      -1.450   4.614 -26.068  0.00  0.00    +0.048 C 
BRANCH  23  24
ATOM     24  C   UNL     1      -0.980   5.339 -27.301  0.00  0.00    -0.025 A 
ATOM     25  C   UNL     1       0.373   5.347 -27.655  0.00  0.00    -0.039 A 
ATOM     26  C   UNL     1       0.770   6.092 -28.754  0.00  0.00    +0.028 A 
ATOM     27  N   UNL     1      -0.076   6.801 -29.527  0.00  0.00    -0.263 NA
ATOM     28  C   UNL     1      -1.383   6.762 -29.188  0.00  0.00    +0.028 A 
ATOM     29  C   UNL     1      -1.876   6.053 -28.103  0.00  0.00    -0.039 A 
ENDBRANCH  23  24
ENDBRANCH   7  23
TORSDOF 5
ENDMDL
