MODEL 1
REMARK VINA RESULT:    -8.988      0.000      0.000
REMARK INTER + INTRA:         -11.737
REMARK INTER:                 -11.615
REMARK INTRA:                  -0.122
REMARK UNBOUND:                -0.122
REMARK  Name = 8c.sdf
REMARK  5 active torsions:
REMARK  status: ('A' for Active; 'I' for Inactive)
REMARK    1  A    between atoms: N_7  and  C_12
REMARK    2  A    between atoms: C_9  and  C_10
REMARK    3  A    between atoms: N_11  and  N_20
REMARK    4  A    between atoms: C_12  and  C_13
REMARK    5  A    between atoms: C_21  and  C_23
REMARK                            x       y       z     vdW  Elec       q    Type
REMARK                         _______ _______ _______ _____ _____    ______ ____
ROOT
ATOM      1  C   UNL     1      -4.997   5.284 -22.205  0.00  0.00    -0.061 A 
ATOM      2  C   UNL     1      -4.723   4.085 -22.852  0.00  0.00    -0.060 A 
ATOM      3  C   UNL     1      -3.804   4.031 -23.905  0.00  0.00    -0.038 A 
ATOM      4  C   UNL     1      -3.153   5.216 -24.286  0.00  0.00    +0.050 A 
ATOM      5  C   UNL     1      -3.379   6.427 -23.619  0.00  0.00    +0.009 A 
ATOM      6  C   UNL     1      -4.331   6.455 -22.573  0.00  0.00    -0.052 A 
ATOM      7  N   UNL     1      -2.245   5.480 -25.294  0.00  0.00    -0.342 N 
ATOM      8  C   UNL     1      -1.846   6.791 -25.232  0.00  0.00    +0.015 A 
ATOM      9  C   UNL     1      -2.522   7.412 -24.198  0.00  0.00    +0.020 A 
ENDROOT
BRANCH   9  10
ATOM     10  C   UNL     1      -2.372   8.793 -23.792  0.00  0.00    +0.055 C 
ATOM     11  N   UNL     1      -3.129   9.704 -24.312  0.00  0.00    -0.187 NA
BRANCH  11  12
ATOM     12  N   UNL     1      -2.912  10.981 -23.876  0.00  0.00    -0.203 N 
ATOM     13  C   UNL     1      -3.668  11.480 -22.823  0.00  0.00    +0.263 C 
ATOM     14  O   UNL     1      -4.531  10.856 -22.212  0.00  0.00    -0.268 OA
ATOM     15  H   UNL     1      -2.227  11.543 -24.305  0.00  0.00    +0.000 HD
BRANCH  13  16
ATOM     16  C   UNL     1      -3.350  12.876 -22.405  0.00  0.00    +0.038 A 
ATOM     17  C   UNL     1      -4.255  13.675 -21.690  0.00  0.00    -0.049 A 
ATOM     18  C   UNL     1      -3.906  14.980 -21.326  0.00  0.00    -0.047 A 
ATOM     19  C   UNL     1      -2.652  15.485 -21.667  0.00  0.00    +0.018 A 
ATOM     20  C   UNL     1      -1.736  14.694 -22.358  0.00  0.00    -0.047 A 
ATOM     21  C   UNL     1      -2.085  13.389 -22.721  0.00  0.00    -0.049 A 
ATOM     22 BR   UNL     1      -2.185  17.250 -21.179  0.00  0.00    -0.050 Br
ENDBRANCH  13  16
ENDBRANCH  11  12
ENDBRANCH   9  10
BRANCH   7  23
ATOM     23  C   UNL     1      -1.828   4.554 -26.347  0.00  0.00    +0.048 C 
BRANCH  23  24
ATOM     24  C   UNL     1      -0.912   5.218 -27.345  0.00  0.00    -0.028 A 
ATOM     25  C   UNL     1       0.375   4.712 -27.579  0.00  0.00    -0.055 A 
ATOM     26  C   UNL     1       1.259   5.383 -28.426  0.00  0.00    -0.043 A 
ATOM     27  C   UNL     1       0.856   6.560 -29.054  0.00  0.00    +0.041 A 
ATOM     28  C   UNL     1      -0.434   7.051 -28.870  0.00  0.00    -0.043 A 
ATOM     29  C   UNL     1      -1.316   6.381 -28.019  0.00  0.00    -0.055 A 
ATOM     30 CL   UNL     1       1.967   7.420 -30.047  0.00  0.00    -0.084 Cl
ENDBRANCH  23  24
ENDBRANCH   7  23
TORSDOF 5
ENDMDL
