MODEL 1
REMARK VINA RESULT:    -9.164      0.000      0.000
REMARK INTER + INTRA:         -11.655
REMARK INTER:                 -11.307
REMARK INTRA:                  -0.349
REMARK UNBOUND:                -0.349
REMARK  Name = 8d.sdf
REMARK  4 active torsions:
REMARK  status: ('A' for Active; 'I' for Inactive)
REMARK    1  A    between atoms: C_9  and  C_10
REMARK    2  A    between atoms: N_11  and  N_19
REMARK    3  A    between atoms: C_12  and  C_13
REMARK    4  A    between atoms: C_20  and  C_22
REMARK                            x       y       z     vdW  Elec       q    Type
REMARK                         _______ _______ _______ _____ _____    ______ ____
ROOT
ATOM      1  C   UNL     1      -3.796   4.949 -22.388  0.00  0.00    -0.061 A 
ATOM      2  C   UNL     1      -3.319   4.305 -23.521  0.00  0.00    -0.060 A 
ATOM      3  C   UNL     1      -2.711   5.026 -24.552  0.00  0.00    -0.037 A 
ATOM      4  C   UNL     1      -2.602   6.424 -24.423  0.00  0.00    +0.057 A 
ATOM      5  C   UNL     1      -3.058   7.092 -23.278  0.00  0.00    +0.009 A 
ATOM      6  C   UNL     1      -3.668   6.337 -22.251  0.00  0.00    -0.052 A 
ATOM      7  N   UNL     1      -2.037   7.373 -25.272  0.00  0.00    -0.282 N 
ATOM      8  C   UNL     1      -2.174   8.612 -24.674  0.00  0.00    +0.023 A 
ATOM      9  C   UNL     1      -2.777   8.483 -23.440  0.00  0.00    +0.020 A 
ATOM     10  C   UNL     1      -1.424   7.148 -26.530  0.00  0.00    +0.263 C 
ATOM     11  O   UNL     1      -1.819   6.190 -27.200  0.00  0.00    -0.267 OA
ENDROOT
BRANCH  10  12
ATOM     12  C   UNL     1      -0.363   8.030 -27.076  0.00  0.00    +0.040 A 
ATOM     13  C   UNL     1      -0.643   9.370 -27.383  0.00  0.00    -0.049 A 
ATOM     14  C   UNL     1       0.313  10.152 -28.026  0.00  0.00    -0.061 A 
ATOM     15  C   UNL     1       1.564   9.615 -28.320  0.00  0.00    -0.062 A 
ATOM     16  C   UNL     1       1.877   8.309 -27.936  0.00  0.00    -0.061 A 
ATOM     17  C   UNL     1       0.917   7.516 -27.306  0.00  0.00    -0.049 A 
ENDBRANCH  10  12
BRANCH   9  18
ATOM     18  C   UNL     1      -3.061   9.582 -22.536  0.00  0.00    +0.055 C 
ATOM     19  N   UNL     1      -4.098  10.322 -22.758  0.00  0.00    -0.187 NA
BRANCH  19  20
ATOM     20  N   UNL     1      -4.332  11.344 -21.877  0.00  0.00    -0.203 N 
ATOM     21  C   UNL     1      -3.894  12.627 -22.189  0.00  0.00    +0.263 C 
ATOM     22  O   UNL     1      -3.300  12.941 -23.218  0.00  0.00    -0.268 OA
ATOM     23  H   UNL     1      -4.805  11.173 -21.031  0.00  0.00    +0.000 HD
BRANCH  21  24
ATOM     24  C   UNL     1      -4.217  13.689 -21.193  0.00  0.00    +0.038 A 
ATOM     25  C   UNL     1      -3.708  14.991 -21.295  0.00  0.00    -0.049 A 
ATOM     26  C   UNL     1      -4.011  15.943 -20.315  0.00  0.00    -0.047 A 
ATOM     27  C   UNL     1      -4.832  15.599 -19.242  0.00  0.00    +0.018 A 
ATOM     28  C   UNL     1      -5.381  14.321 -19.152  0.00  0.00    -0.047 A 
ATOM     29  C   UNL     1      -5.076  13.370 -20.130  0.00  0.00    -0.049 A 
ATOM     30 BR   UNL     1      -5.202  16.877 -17.899  0.00  0.00    -0.050 Br
ENDBRANCH  21  24
ENDBRANCH  19  20
ENDBRANCH   9  18
TORSDOF 4
ENDMDL
