MODEL 1
REMARK VINA RESULT:    -8.724      0.000      0.000
REMARK INTER + INTRA:         -12.474
REMARK INTER:                 -11.275
REMARK INTRA:                  -1.199
REMARK UNBOUND:                -1.199
REMARK  Name = 9a.sdf
REMARK  5 active torsions:
REMARK  status: ('A' for Active; 'I' for Inactive)
REMARK    1  A    between atoms: N_7  and  C_11
REMARK    2  A    between atoms: C_9  and  C_10
REMARK    3  A    between atoms: C_11  and  C_12
REMARK    4  A    between atoms: C_19  and  C_20
REMARK    5  A    between atoms: C_20  and  C_21
REMARK                            x       y       z     vdW  Elec       q    Type
REMARK                         _______ _______ _______ _____ _____    ______ ____
ROOT
ATOM      1  C   UNL     1      -1.093   4.582 -26.560  0.00  0.00    -0.061 A 
ATOM      2  C   UNL     1      -0.205   4.619 -27.629  0.00  0.00    -0.060 A 
ATOM      3  C   UNL     1       0.316   5.832 -28.090  0.00  0.00    -0.038 A 
ATOM      4  C   UNL     1      -0.074   7.016 -27.443  0.00  0.00    +0.050 A 
ATOM      5  C   UNL     1      -0.934   6.999 -26.338  0.00  0.00    +0.007 A 
ATOM      6  C   UNL     1      -1.456   5.760 -25.903  0.00  0.00    -0.052 A 
ATOM      7  N   UNL     1       0.231   8.342 -27.695  0.00  0.00    -0.342 N 
ATOM      8  C   UNL     1      -0.351   9.146 -26.739  0.00  0.00    +0.013 A 
ATOM      9  C   UNL     1      -1.079   8.345 -25.885  0.00  0.00    +0.000 A 
ENDROOT
BRANCH   9  10
ATOM     10  C   UNL     1      -1.829   8.778 -24.744  0.00  0.00    -0.049 C 
ATOM     11  C   UNL     1      -1.473   8.595 -23.464  0.00  0.00    -0.014 C 
BRANCH  11  12
ATOM     12  C   UNL     1      -2.368   9.022 -22.355  0.00  0.00    +0.186 C 
ATOM     13  O   UNL     1      -2.273  10.124 -21.823  0.00  0.00    -0.287 OA
BRANCH  12  14
ATOM     14  C   UNL     1      -3.364   8.025 -21.888  0.00  0.00    +0.022 A 
ATOM     15  C   UNL     1      -4.258   8.384 -20.872  0.00  0.00    -0.051 A 
ATOM     16  C   UNL     1      -5.173   7.449 -20.384  0.00  0.00    -0.061 A 
ATOM     17  C   UNL     1      -5.211   6.160 -20.921  0.00  0.00    -0.062 A 
ATOM     18  C   UNL     1      -4.350   5.811 -21.955  0.00  0.00    -0.061 A 
ATOM     19  C   UNL     1      -3.434   6.740 -22.449  0.00  0.00    -0.051 A 
ENDBRANCH  12  14
ENDBRANCH  11  12
ENDBRANCH   9  10
BRANCH   7  20
ATOM     20  C   UNL     1       0.957   8.859 -28.855  0.00  0.00    +0.048 C 
BRANCH  20  21
ATOM     21  C   UNL     1       2.412   8.461 -28.829  0.00  0.00    -0.028 A 
ATOM     22  C   UNL     1       2.953   7.676 -29.858  0.00  0.00    -0.056 A 
ATOM     23  C   UNL     1       4.265   7.204 -29.777  0.00  0.00    -0.047 A 
ATOM     24  C   UNL     1       5.049   7.529 -28.674  0.00  0.00    +0.018 A 
ATOM     25  C   UNL     1       4.550   8.359 -27.673  0.00  0.00    -0.047 A 
ATOM     26  C   UNL     1       3.236   8.826 -27.752  0.00  0.00    -0.056 A 
ATOM     27 BR   UNL     1       6.788   6.806 -28.515  0.00  0.00    -0.050 Br
ENDBRANCH  20  21
ENDBRANCH   7  20
TORSDOF 5
ENDMDL
