REMARK VINA RESULT:    -8.654      4.133      6.515
REMARK INTER + INTRA:         -11.357
REMARK INTER:                 -10.601
REMARK INTRA:                  -0.756
REMARK UNBOUND:                -0.680
REMARK  Name = 17a.sdf
REMARK  4 active torsions:
REMARK  status: ('A' for Active; 'I' for Inactive)
REMARK    1  A    between atoms: N_7  and  C_16
REMARK    2  A    between atoms: C_9  and  C_10
REMARK    3  A    between atoms: N_11  and  N_12
REMARK    4  A    between atoms: C_16  and  C_17
REMARK                            x       y       z     vdW  Elec       q    Type
REMARK                         _______ _______ _______ _____ _____    ______ ____
ROOT
ATOM      1  C   UNL     1      49.291 -14.034 -11.605  0.00  0.00    -0.061 A 
ATOM      2  C   UNL     1      50.616 -13.614 -11.594  0.00  0.00    -0.060 A 
ATOM      3  C   UNL     1      51.610 -14.340 -12.260  0.00  0.00    -0.038 A 
ATOM      4  C   UNL     1      51.238 -15.511 -12.943  0.00  0.00    +0.050 A 
ATOM      5  C   UNL     1      49.900 -15.920 -13.015  0.00  0.00    +0.009 A 
ATOM      6  C   UNL     1      48.920 -15.174 -12.322  0.00  0.00    -0.052 A 
ATOM      7  N   UNL     1      51.985 -16.459 -13.621  0.00  0.00    -0.342 N 
ATOM      8  C   UNL     1      51.148 -17.387 -14.187  0.00  0.00    +0.015 A 
ATOM      9  C   UNL     1      49.846 -17.081 -13.841  0.00  0.00    +0.020 A 
ENDROOT
BRANCH   9  10
ATOM     10  C   UNL     1      48.669 -17.814 -14.258  0.00  0.00    +0.055 C 
ATOM     11  N   UNL     1      47.974 -18.446 -13.370  0.00  0.00    -0.186 NA
BRANCH  11  12
ATOM     12  N   UNL     1      46.891 -19.123 -13.848  0.00  0.00    -0.191 N 
ATOM     13  C   UNL     1      45.617 -18.835 -13.428  0.00  0.00    +0.317 C 
ATOM     14  O   UNL     1      44.632 -19.460 -13.791  0.00  0.00    -0.251 OA
ATOM     15  N   UNL     1      45.541 -17.788 -12.566  0.00  0.00    -0.312 N 
ATOM     16  H   UNL     1      47.027 -19.837 -14.512  0.00  0.00    +0.000 HD
ATOM     17  H   UNL     1      46.360 -17.311 -12.299  0.00  0.00    +0.000 HD
ATOM     18  H   UNL     1      44.669 -17.506 -12.210  0.00  0.00    +0.000 HD
ENDBRANCH  11  12
ENDBRANCH   9  10
BRANCH   7  19
ATOM     19  C   UNL     1      53.444 -16.570 -13.650  0.00  0.00    +0.048 C 
BRANCH  19  20
ATOM     20  C   UNL     1      53.931 -17.744 -12.837  0.00  0.00    -0.028 A 
ATOM     21  C   UNL     1      53.463 -17.940 -11.529  0.00  0.00    -0.056 A 
ATOM     22  C   UNL     1      54.020 -18.927 -10.717  0.00  0.00    -0.047 A 
ATOM     23  C   UNL     1      55.036 -19.740 -11.215  0.00  0.00    +0.018 A 
ATOM     24  C   UNL     1      55.456 -19.612 -12.537  0.00  0.00    -0.047 A 
ATOM     25  C   UNL     1      54.903 -18.619 -13.347  0.00  0.00    -0.056 A 
ATOM     26 BR   UNL     1      55.881 -20.987 -10.075  0.00  0.00    -0.050 Br
ENDBRANCH  19  20
ENDBRANCH   7  19
TORSDOF 4
