REMARK VINA RESULT:    -8.740      0.970      1.538
REMARK INTER + INTRA:         -11.521
REMARK INTER:                 -11.089
REMARK INTRA:                  -0.432
REMARK UNBOUND:                -0.737
REMARK  Name = 17c.sdf
REMARK  4 active torsions:
REMARK  status: ('A' for Active; 'I' for Inactive)
REMARK    1  A    between atoms: N_7  and  C_16
REMARK    2  A    between atoms: C_9  and  C_10
REMARK    3  A    between atoms: N_11  and  N_12
REMARK    4  A    between atoms: C_16  and  C_17
REMARK                            x       y       z     vdW  Elec       q    Type
REMARK                         _______ _______ _______ _____ _____    ______ ____
ROOT
ATOM      1  C   UNL     1      57.158 -18.384 -12.842  0.00  0.00    -0.061 A 
ATOM      2  C   UNL     1      57.078 -17.017 -13.078  0.00  0.00    -0.060 A 
ATOM      3  C   UNL     1      55.841 -16.388 -13.281  0.00  0.00    -0.038 A 
ATOM      4  C   UNL     1      54.677 -17.177 -13.275  0.00  0.00    +0.050 A 
ATOM      5  C   UNL     1      54.734 -18.549 -12.983  0.00  0.00    +0.009 A 
ATOM      6  C   UNL     1      55.994 -19.152 -12.766  0.00  0.00    -0.052 A 
ATOM      7  N   UNL     1      53.349 -16.875 -13.539  0.00  0.00    -0.342 N 
ATOM      8  C   UNL     1      52.577 -17.993 -13.328  0.00  0.00    +0.015 A 
ATOM      9  C   UNL     1      53.395 -19.045 -12.967  0.00  0.00    +0.020 A 
ENDROOT
BRANCH   9  10
ATOM     10  C   UNL     1      52.956 -20.388 -12.642  0.00  0.00    +0.055 C 
ATOM     11  N   UNL     1      52.782 -20.708 -11.401  0.00  0.00    -0.186 NA
BRANCH  11  12
ATOM     12  N   UNL     1      52.404 -22.002 -11.168  0.00  0.00    -0.191 N 
ATOM     13  C   UNL     1      51.675 -22.354 -10.051  0.00  0.00    +0.317 C 
ATOM     14  O   UNL     1      51.302 -23.489  -9.836  0.00  0.00    -0.251 OA
ATOM     15  N   UNL     1      51.429 -21.319  -9.218  0.00  0.00    -0.312 N 
ATOM     16  H   UNL     1      52.658 -22.700 -11.815  0.00  0.00    +0.000 HD
ATOM     17  H   UNL     1      51.754 -20.418  -9.443  0.00  0.00    +0.000 HD
ATOM     18  H   UNL     1      50.923 -21.467  -8.387  0.00  0.00    +0.000 HD
ENDBRANCH  11  12
ENDBRANCH   9  10
BRANCH   7  19
ATOM     19  C   UNL     1      52.811 -15.634 -14.108  0.00  0.00    +0.048 C 
BRANCH  19  20
ATOM     20  C   UNL     1      51.364 -15.418 -13.738  0.00  0.00    -0.028 A 
ATOM     21  C   UNL     1      51.032 -14.641 -12.618  0.00  0.00    -0.055 A 
ATOM     22  C   UNL     1      49.721 -14.614 -12.138  0.00  0.00    -0.043 A 
ATOM     23  C   UNL     1      48.728 -15.330 -12.801  0.00  0.00    +0.041 A 
ATOM     24  C   UNL     1      49.017 -16.008 -13.982  0.00  0.00    -0.043 A 
ATOM     25  C   UNL     1      50.332 -16.050 -14.452  0.00  0.00    -0.055 A 
ATOM     26 CL   UNL     1      47.149 -15.424 -12.123  0.00  0.00    -0.084 Cl
ENDBRANCH  19  20
ENDBRANCH   7  19
TORSDOF 4
