REMARK VINA RESULT:    -8.568      3.883      6.167
REMARK INTER + INTRA:         -11.308
REMARK INTER:                 -10.992
REMARK INTRA:                  -0.316
REMARK UNBOUND:                -0.737
REMARK  Name = 17c.sdf
REMARK  4 active torsions:
REMARK  status: ('A' for Active; 'I' for Inactive)
REMARK    1  A    between atoms: N_7  and  C_16
REMARK    2  A    between atoms: C_9  and  C_10
REMARK    3  A    between atoms: N_11  and  N_12
REMARK    4  A    between atoms: C_16  and  C_17
REMARK                            x       y       z     vdW  Elec       q    Type
REMARK                         _______ _______ _______ _____ _____    ______ ____
ROOT
ATOM      1  C   UNL     1      49.088 -14.861 -11.646  0.00  0.00    -0.061 A 
ATOM      2  C   UNL     1      50.108 -13.957 -11.924  0.00  0.00    -0.060 A 
ATOM      3  C   UNL     1      51.262 -14.357 -12.612  0.00  0.00    -0.038 A 
ATOM      4  C   UNL     1      51.387 -15.707 -12.988  0.00  0.00    +0.050 A 
ATOM      5  C   UNL     1      50.345 -16.620 -12.765  0.00  0.00    +0.009 A 
ATOM      6  C   UNL     1      49.185 -16.183 -12.084  0.00  0.00    -0.052 A 
ATOM      7  N   UNL     1      52.426 -16.415 -13.576  0.00  0.00    -0.342 N 
ATOM      8  C   UNL     1      52.021 -17.708 -13.806  0.00  0.00    +0.015 A 
ATOM      9  C   UNL     1      50.734 -17.871 -13.333  0.00  0.00    +0.020 A 
ENDROOT
BRANCH   9  10
ATOM     10  C   UNL     1      49.950 -19.088 -13.407  0.00  0.00    +0.055 C 
ATOM     11  N   UNL     1      48.956 -19.145 -14.233  0.00  0.00    -0.186 NA
BRANCH  11  12
ATOM     12  N   UNL     1      48.239 -20.310 -14.221  0.00  0.00    -0.191 N 
ATOM     13  C   UNL     1      46.906 -20.335 -13.869  0.00  0.00    +0.317 C 
ATOM     14  O   UNL     1      46.239 -21.349 -13.877  0.00  0.00    -0.251 OA
ATOM     15  N   UNL     1      46.420 -19.128 -13.503  0.00  0.00    -0.312 N 
ATOM     16  H   UNL     1      48.686 -21.151 -14.470  0.00  0.00    +0.000 HD
ATOM     17  H   UNL     1      47.005 -18.337 -13.515  0.00  0.00    +0.000 HD
ATOM     18  H   UNL     1      45.480 -19.041 -13.225  0.00  0.00    +0.000 HD
ENDBRANCH  11  12
ENDBRANCH   9  10
BRANCH   7  19
ATOM     19  C   UNL     1      53.805 -15.962 -13.794  0.00  0.00    +0.048 C 
BRANCH  19  20
ATOM     20  C   UNL     1      54.783 -16.648 -12.872  0.00  0.00    -0.028 A 
ATOM     21  C   UNL     1      56.162 -16.491 -13.066  0.00  0.00    -0.055 A 
ATOM     22  C   UNL     1      57.071 -17.287 -12.366  0.00  0.00    -0.043 A 
ATOM     23  C   UNL     1      56.606 -18.213 -11.437  0.00  0.00    +0.041 A 
ATOM     24  C   UNL     1      55.247 -18.296 -11.145  0.00  0.00    -0.043 A 
ATOM     25  C   UNL     1      54.336 -17.513 -11.859  0.00  0.00    -0.055 A 
ATOM     26 CL   UNL     1      57.711 -19.300 -10.690  0.00  0.00    -0.084 Cl
ENDBRANCH  19  20
ENDBRANCH   7  19
TORSDOF 4
