REMARK VINA RESULT:    -8.051      3.275      5.899
REMARK INTER + INTRA:          -9.943
REMARK INTER:                  -9.316
REMARK INTRA:                  -0.627
REMARK UNBOUND:                -0.480
REMARK  Name = 1c.sdf
REMARK  3 active torsions:
REMARK  status: ('A' for Active; 'I' for Inactive)
REMARK    1  A    between atoms: N_7  and  C_12
REMARK    2  A    between atoms: C_9  and  C_10
REMARK    3  A    between atoms: C_12  and  C_13
REMARK                            x       y       z     vdW  Elec       q    Type
REMARK                         _______ _______ _______ _____ _____    ______ ____
ROOT
ATOM      1  C   UNL     1      49.601 -14.358 -11.928  0.00  0.00    -0.061 A 
ATOM      2  C   UNL     1      49.267 -15.704 -12.042  0.00  0.00    -0.060 A 
ATOM      3  C   UNL     1      50.217 -16.660 -12.432  0.00  0.00    -0.038 A 
ATOM      4  C   UNL     1      51.519 -16.228 -12.741  0.00  0.00    +0.050 A 
ATOM      5  C   UNL     1      51.890 -14.884 -12.570  0.00  0.00    +0.010 A 
ATOM      6  C   UNL     1      50.914 -13.946 -12.165  0.00  0.00    -0.052 A 
ATOM      7  N   UNL     1      52.632 -16.892 -13.244  0.00  0.00    -0.342 N 
ATOM      8  C   UNL     1      53.699 -16.023 -13.287  0.00  0.00    +0.016 A 
ATOM      9  C   UNL     1      53.274 -14.779 -12.871  0.00  0.00    +0.039 A 
ENDROOT
BRANCH   9  10
ATOM     10  C   UNL     1      54.112 -13.595 -12.782  0.00  0.00    +0.152 C 
ATOM     11  O   UNL     1      55.245 -13.595 -12.321  0.00  0.00    -0.296 OA
ENDBRANCH   9  10
BRANCH   7  12
ATOM     12  C   UNL     1      52.694 -18.240 -13.818  0.00  0.00    +0.048 C 
BRANCH  12  13
ATOM     13  C   UNL     1      52.601 -19.316 -12.764  0.00  0.00    -0.028 A 
ATOM     14  C   UNL     1      51.711 -20.385 -12.930  0.00  0.00    -0.055 A 
ATOM     15  C   UNL     1      51.455 -21.264 -11.877  0.00  0.00    -0.043 A 
ATOM     16  C   UNL     1      52.119 -21.103 -10.664  0.00  0.00    +0.041 A 
ATOM     17  C   UNL     1      53.094 -20.119 -10.520  0.00  0.00    -0.043 A 
ATOM     18  C   UNL     1      53.338 -19.228 -11.571  0.00  0.00    -0.055 A 
ATOM     19 CL   UNL     1      51.688 -22.085  -9.319  0.00  0.00    -0.084 Cl
ENDBRANCH  12  13
ENDBRANCH   7  12
TORSDOF 3
