REMARK VINA RESULT:    -9.403      2.049      3.087
REMARK INTER + INTRA:         -13.394
REMARK INTER:                 -12.522
REMARK INTRA:                  -0.871
REMARK UNBOUND:                -0.692
REMARK  Name = 26a.sdf
REMARK  7 active torsions:
REMARK  status: ('A' for Active; 'I' for Inactive)
REMARK    1  A    between atoms: N_7  and  C_10
REMARK    2  A    between atoms: C_9  and  C_18
REMARK    3  A    between atoms: C_10  and  C_11
REMARK    4  A    between atoms: N_19  and  N_20
REMARK    5  A    between atoms: C_21  and  C_23
REMARK    6  A    between atoms: C_26  and  O_29
REMARK    7  A    between atoms: C_28  and  O_30
REMARK                            x       y       z     vdW  Elec       q    Type
REMARK                         _______ _______ _______ _____ _____    ______ ____
ROOT
ATOM      1  C   UNL     1      53.005 -13.679 -13.010  0.00  0.00    -0.061 A 
ATOM      2  C   UNL     1      54.386 -13.522 -13.000  0.00  0.00    -0.060 A 
ATOM      3  C   UNL     1      55.236 -14.627 -13.102  0.00  0.00    -0.038 A 
ATOM      4  C   UNL     1      54.661 -15.904 -13.224  0.00  0.00    +0.050 A 
ATOM      5  C   UNL     1      53.273 -16.081 -13.286  0.00  0.00    +0.009 A 
ATOM      6  C   UNL     1      52.438 -14.948 -13.161  0.00  0.00    -0.052 A 
ATOM      7  N   UNL     1      55.231 -17.162 -13.289  0.00  0.00    -0.342 N 
ATOM      8  C   UNL     1      54.252 -18.104 -13.474  0.00  0.00    +0.015 A 
ATOM      9  C   UNL     1      53.024 -17.475 -13.479  0.00  0.00    +0.020 A 
ENDROOT
BRANCH   9  10
ATOM     10  C   UNL     1      51.744 -18.129 -13.650  0.00  0.00    +0.055 C 
ATOM     11  N   UNL     1      50.827 -17.987 -12.749  0.00  0.00    -0.187 NA
BRANCH  11  12
ATOM     12  N   UNL     1      49.665 -18.652 -12.998  0.00  0.00    -0.203 N 
ATOM     13  C   UNL     1      48.605 -18.025 -13.623  0.00  0.00    +0.267 C 
ATOM     14  O   UNL     1      48.606 -16.856 -14.013  0.00  0.00    -0.268 OA
ATOM     15  H   UNL     1      49.579 -19.595 -12.729  0.00  0.00    +0.000 HD
BRANCH  13  16
ATOM     16  C   UNL     1      47.372 -18.860 -13.818  0.00  0.00    +0.080 A 
ATOM     17  C   UNL     1      47.494 -20.020 -14.603  0.00  0.00    -0.043 A 
ATOM     18  C   UNL     1      46.395 -20.846 -14.847  0.00  0.00    -0.019 A 
ATOM     19  C   UNL     1      45.161 -20.512 -14.301  0.00  0.00    +0.120 A 
ATOM     20  C   UNL     1      45.011 -19.377 -13.514  0.00  0.00    +0.022 A 
ATOM     21  C   UNL     1      46.114 -18.551 -13.273  0.00  0.00    +0.132 A 
BRANCH  19  22
ATOM     22  O   UNL     1      44.055 -21.278 -14.520  0.00  0.00    -0.507 OA
ATOM     23  H   UNL     1      43.465 -21.462 -13.815  0.00  0.00    +0.000 HD
ENDBRANCH  19  22
BRANCH  21  24
ATOM     24  O   UNL     1      45.932 -17.432 -12.498  0.00  0.00    -0.506 OA
ATOM     25  H   UNL     1      45.068 -17.102 -12.347  0.00  0.00    +0.000 HD
ENDBRANCH  21  24
ENDBRANCH  13  16
ENDBRANCH  11  12
ENDBRANCH   9  10
BRANCH   7  26
ATOM     26  C   UNL     1      56.639 -17.492 -13.078  0.00  0.00    +0.048 C 
BRANCH  26  27
ATOM     27  C   UNL     1      56.802 -18.771 -12.296  0.00  0.00    -0.028 A 
ATOM     28  C   UNL     1      57.345 -19.911 -12.904  0.00  0.00    -0.056 A 
ATOM     29  C   UNL     1      57.391 -21.127 -12.220  0.00  0.00    -0.047 A 
ATOM     30  C   UNL     1      56.903 -21.206 -10.919  0.00  0.00    +0.018 A 
ATOM     31  C   UNL     1      56.410 -20.071 -10.279  0.00  0.00    -0.047 A 
ATOM     32  C   UNL     1      56.361 -18.856 -10.967  0.00  0.00    -0.056 A 
ATOM     33 BR   UNL     1      56.878 -22.872 -10.028  0.00  0.00    -0.050 Br
ENDBRANCH  26  27
ENDBRANCH   7  26
TORSDOF 7
