REMARK VINA RESULT:    -9.394      0.000      0.000
REMARK INTER + INTRA:         -12.581
REMARK INTER:                 -12.140
REMARK INTRA:                  -0.440
REMARK UNBOUND:                -0.440
REMARK  Name = 8a.sdf
REMARK  5 active torsions:
REMARK  status: ('A' for Active; 'I' for Inactive)
REMARK    1  A    between atoms: N_7  and  C_12
REMARK    2  A    between atoms: C_9  and  C_10
REMARK    3  A    between atoms: N_11  and  N_20
REMARK    4  A    between atoms: C_12  and  C_13
REMARK    5  A    between atoms: C_21  and  C_23
REMARK                            x       y       z     vdW  Elec       q    Type
REMARK                         _______ _______ _______ _____ _____    ______ ____
ROOT
ATOM      1  C   UNL     1      55.641 -14.723 -13.233  0.00  0.00    -0.061 A 
ATOM      2  C   UNL     1      54.841 -13.598 -13.396  0.00  0.00    -0.060 A 
ATOM      3  C   UNL     1      53.484 -13.627 -13.060  0.00  0.00    -0.038 A 
ATOM      4  C   UNL     1      52.949 -14.818 -12.542  0.00  0.00    +0.050 A 
ATOM      5  C   UNL     1      53.747 -15.949 -12.327  0.00  0.00    +0.009 A 
ATOM      6  C   UNL     1      55.110 -15.897 -12.694  0.00  0.00    -0.052 A 
ATOM      7  N   UNL     1      51.661 -15.158 -12.171  0.00  0.00    -0.342 N 
ATOM      8  C   UNL     1      51.646 -16.432 -11.659  0.00  0.00    +0.015 A 
ATOM      9  C   UNL     1      52.922 -16.956 -11.732  0.00  0.00    +0.020 A 
ENDROOT
BRANCH   9  10
ATOM     10  C   UNL     1      53.330 -18.266 -11.283  0.00  0.00    +0.055 C 
ATOM     11  N   UNL     1      52.823 -18.767 -10.201  0.00  0.00    -0.187 NA
BRANCH  11  12
ATOM     12  N   UNL     1      53.271 -20.008  -9.848  0.00  0.00    -0.203 N 
ATOM     13  C   UNL     1      52.740 -21.129 -10.472  0.00  0.00    +0.263 C 
ATOM     14  O   UNL     1      51.886 -21.116 -11.348  0.00  0.00    -0.268 OA
ATOM     15  H   UNL     1      53.965 -20.107  -9.156  0.00  0.00    +0.000 HD
BRANCH  13  16
ATOM     16  C   UNL     1      53.310 -22.438 -10.036  0.00  0.00    +0.038 A 
ATOM     17  C   UNL     1      52.654 -23.657 -10.247  0.00  0.00    -0.049 A 
ATOM     18  C   UNL     1      53.238 -24.851  -9.814  0.00  0.00    -0.047 A 
ATOM     19  C   UNL     1      54.483 -24.828  -9.181  0.00  0.00    +0.018 A 
ATOM     20  C   UNL     1      55.154 -23.625  -8.986  0.00  0.00    -0.047 A 
ATOM     21  C   UNL     1      54.571 -22.430  -9.419  0.00  0.00    -0.049 A 
ATOM     22 BR   UNL     1      55.264 -26.445  -8.595  0.00  0.00    -0.050 Br
ENDBRANCH  13  16
ENDBRANCH  11  12
ENDBRANCH   9  10
BRANCH   7  23
ATOM     23  C   UNL     1      50.459 -14.352 -12.378  0.00  0.00    +0.048 C 
BRANCH  23  24
ATOM     24  C   UNL     1      49.261 -15.208 -12.705  0.00  0.00    -0.028 A 
ATOM     25  C   UNL     1      48.076 -15.091 -11.962  0.00  0.00    -0.056 A 
ATOM     26  C   UNL     1      47.005 -15.955 -12.193  0.00  0.00    -0.047 A 
ATOM     27  C   UNL     1      47.107 -16.934 -13.178  0.00  0.00    +0.018 A 
ATOM     28  C   UNL     1      48.255 -17.031 -13.961  0.00  0.00    -0.047 A 
ATOM     29  C   UNL     1      49.328 -16.169 -13.725  0.00  0.00    -0.056 A 
ATOM     30 BR   UNL     1      45.690 -18.160 -13.431  0.00  0.00    -0.050 Br
ENDBRANCH  23  24
ENDBRANCH   7  23
TORSDOF 5
