REMARK  Name = 7a.sdf
REMARK  6 active torsions:
REMARK  status: ('A' for Active; 'I' for Inactive)
REMARK    1  A    between atoms: N_7  and  C_12
REMARK    2  A    between atoms: C_9  and  C_10
REMARK    3  A    between atoms: C_10  and  C_11
REMARK    4  A    between atoms: C_11  and  O_21
REMARK    5  A    between atoms: C_12  and  C_13
REMARK    6  A    between atoms: O_21  and  C_22
REMARK                            x       y       z     vdW  Elec       q    Type
REMARK                         _______ _______ _______ _____ _____    ______ ____
ROOT
ATOM      1  C   UNL     1      -2.120  -0.932  -0.051  0.00  0.00    -0.061 A 
ATOM      2  C   UNL     1      -2.220   0.443  -0.234  0.00  0.00    -0.060 A 
ATOM      3  C   UNL     1      -1.072   1.248  -0.309  0.00  0.00    -0.038 A 
ATOM      4  C   UNL     1       0.188   0.638  -0.161  0.00  0.00    +0.050 A 
ATOM      5  C   UNL     1       0.307  -0.755  -0.038  0.00  0.00    +0.004 A 
ATOM      6  C   UNL     1      -0.866  -1.540   0.021  0.00  0.00    -0.052 A 
ATOM      7  N   UNL     1       1.474   1.155  -0.084  0.00  0.00    -0.342 N 
ATOM      8  C   UNL     1       2.381   0.123  -0.032  0.00  0.00    +0.010 A 
ATOM      9  C   UNL     1       1.700  -1.078  -0.018  0.00  0.00    -0.012 A 
ENDROOT
BRANCH   9  10
ATOM     10  C   UNL     1       2.317  -2.443   0.003  0.00  0.00    +0.072 C 
BRANCH  10  11
ATOM     11  C   UNL     1       2.541  -2.996   1.396  0.00  0.00    +0.311 C 
ATOM     12  O   UNL     1       2.290  -2.421   2.452  0.00  0.00    -0.250 OA
BRANCH  11  13
ATOM     13  O   UNL     1       3.081  -4.248   1.312  0.00  0.00    -0.468 OA
ATOM     14  C   UNL     1       3.319  -4.855   2.587  0.00  0.00    +0.082 C 
ENDBRANCH  11  13
ENDBRANCH  10  11
ENDBRANCH   9  10
BRANCH   7  15
ATOM     15  C   UNL     1       1.872   2.558   0.067  0.00  0.00    +0.048 C 
BRANCH  15  16
ATOM     16  C   UNL     1       2.166   3.214  -1.262  0.00  0.00    -0.028 A 
ATOM     17  C   UNL     1       1.162   3.932  -1.924  0.00  0.00    -0.056 A 
ATOM     18  C   UNL     1       1.347   4.357  -3.240  0.00  0.00    -0.047 A 
ATOM     19  C   UNL     1       2.553   4.098  -3.886  0.00  0.00    +0.018 A 
ATOM     20  C   UNL     1       3.603   3.488  -3.204  0.00  0.00    -0.047 A 
ATOM     21  C   UNL     1       3.410   3.049  -1.892  0.00  0.00    -0.056 A 
ATOM     22 BR   UNL     1       2.735   4.502  -5.724  0.00  0.00    -0.050 Br
ENDBRANCH  15  16
ENDBRANCH   7  15
TORSDOF 5
