REMARK VINA RESULT:    -8.004      4.414      7.139
REMARK INTER + INTRA:         -10.634
REMARK INTER:                 -10.054
REMARK INTRA:                  -0.580
REMARK UNBOUND:                -0.758
REMARK  Name = 17a.sdf
REMARK  4 active torsions:
REMARK  status: ('A' for Active; 'I' for Inactive)
REMARK    1  A    between atoms: N_7  and  C_16
REMARK    2  A    between atoms: C_9  and  C_10
REMARK    3  A    between atoms: N_11  and  N_12
REMARK    4  A    between atoms: C_16  and  C_17
REMARK                            x       y       z     vdW  Elec       q    Type
REMARK                         _______ _______ _______ _____ _____    ______ ____
ROOT
ATOM      1  C   UNL     1     -44.223  57.108  -0.751  0.00  0.00    -0.061 A 
ATOM      2  C   UNL     1     -43.736  58.365  -0.415  0.00  0.00    -0.060 A 
ATOM      3  C   UNL     1     -43.242  58.629   0.868  0.00  0.00    -0.038 A 
ATOM      4  C   UNL     1     -43.250  57.590   1.814  0.00  0.00    +0.050 A 
ATOM      5  C   UNL     1     -43.683  56.300   1.478  0.00  0.00    +0.009 A 
ATOM      6  C   UNL     1     -44.188  56.067   0.179  0.00  0.00    -0.052 A 
ATOM      7  N   UNL     1     -42.901  57.561   3.153  0.00  0.00    -0.342 N 
ATOM      8  C   UNL     1     -43.015  56.279   3.631  0.00  0.00    +0.015 A 
ATOM      9  C   UNL     1     -43.487  55.467   2.619  0.00  0.00    +0.020 A 
ENDROOT
BRANCH   9  10
ATOM     10  C   UNL     1     -43.725  54.043   2.723  0.00  0.00    +0.055 C 
ATOM     11  N   UNL     1     -43.024  53.234   1.997  0.00  0.00    -0.186 NA
BRANCH  11  12
ATOM     12  N   UNL     1     -43.322  51.911   2.144  0.00  0.00    -0.191 N 
ATOM     13  C   UNL     1     -44.042  51.224   1.199  0.00  0.00    +0.317 C 
ATOM     14  O   UNL     1     -44.375  50.056   1.326  0.00  0.00    -0.251 OA
ATOM     15  N   UNL     1     -44.357  51.959   0.101  0.00  0.00    -0.312 N 
ATOM     16  H   UNL     1     -43.011  51.436   2.948  0.00  0.00    +0.000 HD
ATOM     17  H   UNL     1     -44.069  52.898   0.039  0.00  0.00    +0.000 HD
ATOM     18  H   UNL     1     -44.873  51.553  -0.631  0.00  0.00    +0.000 HD
ENDBRANCH  11  12
ENDBRANCH   9  10
BRANCH   7  19
ATOM     19  C   UNL     1     -42.581  58.709   4.003  0.00  0.00    +0.048 C 
BRANCH  19  20
ATOM     20  C   UNL     1     -43.796  59.216   4.739  0.00  0.00    -0.028 A 
ATOM     21  C   UNL     1     -45.074  59.063   4.181  0.00  0.00    -0.056 A 
ATOM     22  C   UNL     1     -46.184  59.663   4.776  0.00  0.00    -0.047 A 
ATOM     23  C   UNL     1     -46.025  60.403   5.946  0.00  0.00    +0.018 A 
ATOM     24  C   UNL     1     -44.777  60.497   6.557  0.00  0.00    -0.047 A 
ATOM     25  C   UNL     1     -43.665  59.902   5.956  0.00  0.00    -0.056 A 
ATOM     26 BR   UNL     1     -47.503  61.324   6.678  0.00  0.00    -0.050 Br
ENDBRANCH  19  20
ENDBRANCH   7  19
TORSDOF 4
