REMARK VINA RESULT:    -8.123      4.529      7.263
REMARK INTER + INTRA:         -10.749
REMARK INTER:                 -10.172
REMARK INTRA:                  -0.577
REMARK UNBOUND:                -0.726
REMARK  Name = 17c.sdf
REMARK  4 active torsions:
REMARK  status: ('A' for Active; 'I' for Inactive)
REMARK    1  A    between atoms: N_7  and  C_16
REMARK    2  A    between atoms: C_9  and  C_10
REMARK    3  A    between atoms: N_11  and  N_12
REMARK    4  A    between atoms: C_16  and  C_17
REMARK                            x       y       z     vdW  Elec       q    Type
REMARK                         _______ _______ _______ _____ _____    ______ ____
ROOT
ATOM      1  C   UNL     1     -44.203  56.965  -0.869  0.00  0.00    -0.061 A 
ATOM      2  C   UNL     1     -43.734  58.239  -0.570  0.00  0.00    -0.060 A 
ATOM      3  C   UNL     1     -43.230  58.545   0.702  0.00  0.00    -0.038 A 
ATOM      4  C   UNL     1     -43.237  57.541   1.688  0.00  0.00    +0.050 A 
ATOM      5  C   UNL     1     -43.654  56.235   1.387  0.00  0.00    +0.009 A 
ATOM      6  C   UNL     1     -44.142  55.953   0.091  0.00  0.00    -0.052 A 
ATOM      7  N   UNL     1     -42.908  57.560   3.036  0.00  0.00    -0.342 N 
ATOM      8  C   UNL     1     -43.019  56.289   3.548  0.00  0.00    +0.015 A 
ATOM      9  C   UNL     1     -43.463  55.438   2.556  0.00  0.00    +0.020 A 
ENDROOT
BRANCH   9  10
ATOM     10  C   UNL     1     -43.687  54.013   2.699  0.00  0.00    +0.055 C 
ATOM     11  N   UNL     1     -43.014  53.195   1.957  0.00  0.00    -0.186 NA
BRANCH  11  12
ATOM     12  N   UNL     1     -43.306  51.868   2.119  0.00  0.00    -0.191 N 
ATOM     13  C   UNL     1     -44.007  51.160   1.166  0.00  0.00    +0.317 C 
ATOM     14  O   UNL     1     -44.255  49.976   1.270  0.00  0.00    -0.251 OA
ATOM     15  N   UNL     1     -44.402  51.912   0.115  0.00  0.00    -0.312 N 
ATOM     16  H   UNL     1     -43.007  51.407   2.936  0.00  0.00    +0.000 HD
ATOM     17  H   UNL     1     -44.173  52.868   0.080  0.00  0.00    +0.000 HD
ATOM     18  H   UNL     1     -44.918  51.502  -0.617  0.00  0.00    +0.000 HD
ENDBRANCH  11  12
ENDBRANCH   9  10
BRANCH   7  19
ATOM     19  C   UNL     1     -42.634  58.734   3.872  0.00  0.00    +0.048 C 
BRANCH  19  20
ATOM     20  C   UNL     1     -43.862  59.206   4.612  0.00  0.00    -0.028 A 
ATOM     21  C   UNL     1     -45.135  59.009   4.059  0.00  0.00    -0.055 A 
ATOM     22  C   UNL     1     -46.254  59.629   4.620  0.00  0.00    -0.043 A 
ATOM     23  C   UNL     1     -46.110  60.414   5.761  0.00  0.00    +0.041 A 
ATOM     24  C   UNL     1     -44.873  60.521   6.390  0.00  0.00    -0.043 A 
ATOM     25  C   UNL     1     -43.750  59.916   5.819  0.00  0.00    -0.055 A 
ATOM     26 CL   UNL     1     -47.456  61.302   6.359  0.00  0.00    -0.084 Cl
ENDBRANCH  19  20
ENDBRANCH   7  19
TORSDOF 4
