MODEL 1
REMARK VINA RESULT:    -8.369      0.000      0.000
REMARK INTER + INTRA:         -11.052
REMARK INTER:                 -10.325
REMARK INTRA:                  -0.726
REMARK UNBOUND:                -0.726
REMARK  Name = 17c.sdf
REMARK  4 active torsions:
REMARK  status: ('A' for Active; 'I' for Inactive)
REMARK    1  A    between atoms: N_7  and  C_16
REMARK    2  A    between atoms: C_9  and  C_10
REMARK    3  A    between atoms: N_11  and  N_12
REMARK    4  A    between atoms: C_16  and  C_17
REMARK                            x       y       z     vdW  Elec       q    Type
REMARK                         _______ _______ _______ _____ _____    ______ ____
ROOT
ATOM      1  C   UNL     1     -46.769  61.206   6.425  0.00  0.00    -0.061 A 
ATOM      2  C   UNL     1     -46.632  61.674   7.726  0.00  0.00    -0.060 A 
ATOM      3  C   UNL     1     -45.414  61.560   8.412  0.00  0.00    -0.038 A 
ATOM      4  C   UNL     1     -44.336  60.927   7.768  0.00  0.00    +0.050 A 
ATOM      5  C   UNL     1     -44.440  60.499   6.435  0.00  0.00    +0.009 A 
ATOM      6  C   UNL     1     -45.676  60.643   5.763  0.00  0.00    -0.052 A 
ATOM      7  N   UNL     1     -43.066  60.580   8.206  0.00  0.00    -0.342 N 
ATOM      8  C   UNL     1     -42.357  60.038   7.160  0.00  0.00    +0.015 A 
ATOM      9  C   UNL     1     -43.166  59.986   6.043  0.00  0.00    +0.020 A 
ENDROOT
BRANCH   9  10
ATOM     10  C   UNL     1     -42.777  59.496   4.736  0.00  0.00    +0.055 C 
ATOM     11  N   UNL     1     -43.032  58.266   4.425  0.00  0.00    -0.186 NA
BRANCH  11  12
ATOM     12  N   UNL     1     -42.602  57.863   3.190  0.00  0.00    -0.191 N 
ATOM     13  C   UNL     1     -43.489  57.494   2.201  0.00  0.00    +0.317 C 
ATOM     14  O   UNL     1     -43.137  57.161   1.088  0.00  0.00    -0.251 OA
ATOM     15  N   UNL     1     -44.782  57.525   2.593  0.00  0.00    -0.312 N 
ATOM     16  H   UNL     1     -41.636  57.839   3.003  0.00  0.00    +0.000 HD
ATOM     17  H   UNL     1     -45.012  57.804   3.509  0.00  0.00    +0.000 HD
ATOM     18  H   UNL     1     -45.493  57.270   1.963  0.00  0.00    +0.000 HD
ENDBRANCH  11  12
ENDBRANCH   9  10
BRANCH   7  19
ATOM     19  C   UNL     1     -42.556  60.610   9.582  0.00  0.00    +0.048 C 
BRANCH  19  20
ATOM     20  C   UNL     1     -41.550  61.715   9.793  0.00  0.00    -0.028 A 
ATOM     21  C   UNL     1     -40.178  61.428   9.787  0.00  0.00    -0.055 A 
ATOM     22  C   UNL     1     -39.251  62.389  10.196  0.00  0.00    -0.043 A 
ATOM     23  C   UNL     1     -39.690  63.656  10.572  0.00  0.00    +0.041 A 
ATOM     24  C   UNL     1     -41.036  63.994  10.469  0.00  0.00    -0.043 A 
ATOM     25  C   UNL     1     -41.965  63.027  10.077  0.00  0.00    -0.055 A 
ATOM     26 CL   UNL     1     -38.569  64.787  11.223  0.00  0.00    -0.084 Cl
ENDBRANCH  19  20
ENDBRANCH   7  19
TORSDOF 4
ENDMDL
MODEL 2
REMARK VINA RESULT:    -8.123      4.529      7.263
REMARK INTER + INTRA:         -10.749
REMARK INTER:                 -10.172
REMARK INTRA:                  -0.577
REMARK UNBOUND:                -0.726
REMARK  Name = 17c.sdf
REMARK  4 active torsions:
REMARK  status: ('A' for Active; 'I' for Inactive)
REMARK    1  A    between atoms: N_7  and  C_16
REMARK    2  A    between atoms: C_9  and  C_10
REMARK    3  A    between atoms: N_11  and  N_12
REMARK    4  A    between atoms: C_16  and  C_17
REMARK                            x       y       z     vdW  Elec       q    Type
REMARK                         _______ _______ _______ _____ _____    ______ ____
ROOT
ATOM      1  C   UNL     1     -44.203  56.965  -0.869  0.00  0.00    -0.061 A 
ATOM      2  C   UNL     1     -43.734  58.239  -0.570  0.00  0.00    -0.060 A 
ATOM      3  C   UNL     1     -43.230  58.545   0.702  0.00  0.00    -0.038 A 
ATOM      4  C   UNL     1     -43.237  57.541   1.688  0.00  0.00    +0.050 A 
ATOM      5  C   UNL     1     -43.654  56.235   1.387  0.00  0.00    +0.009 A 
ATOM      6  C   UNL     1     -44.142  55.953   0.091  0.00  0.00    -0.052 A 
ATOM      7  N   UNL     1     -42.908  57.560   3.036  0.00  0.00    -0.342 N 
ATOM      8  C   UNL     1     -43.019  56.289   3.548  0.00  0.00    +0.015 A 
ATOM      9  C   UNL     1     -43.463  55.438   2.556  0.00  0.00    +0.020 A 
ENDROOT
BRANCH   9  10
ATOM     10  C   UNL     1     -43.687  54.013   2.699  0.00  0.00    +0.055 C 
ATOM     11  N   UNL     1     -43.014  53.195   1.957  0.00  0.00    -0.186 NA
BRANCH  11  12
ATOM     12  N   UNL     1     -43.306  51.868   2.119  0.00  0.00    -0.191 N 
ATOM     13  C   UNL     1     -44.007  51.160   1.166  0.00  0.00    +0.317 C 
ATOM     14  O   UNL     1     -44.255  49.976   1.270  0.00  0.00    -0.251 OA
ATOM     15  N   UNL     1     -44.402  51.912   0.115  0.00  0.00    -0.312 N 
ATOM     16  H   UNL     1     -43.007  51.407   2.936  0.00  0.00    +0.000 HD
ATOM     17  H   UNL     1     -44.173  52.868   0.080  0.00  0.00    +0.000 HD
ATOM     18  H   UNL     1     -44.918  51.502  -0.617  0.00  0.00    +0.000 HD
ENDBRANCH  11  12
ENDBRANCH   9  10
BRANCH   7  19
ATOM     19  C   UNL     1     -42.634  58.734   3.872  0.00  0.00    +0.048 C 
BRANCH  19  20
ATOM     20  C   UNL     1     -43.862  59.206   4.612  0.00  0.00    -0.028 A 
ATOM     21  C   UNL     1     -45.135  59.009   4.059  0.00  0.00    -0.055 A 
ATOM     22  C   UNL     1     -46.254  59.629   4.620  0.00  0.00    -0.043 A 
ATOM     23  C   UNL     1     -46.110  60.414   5.761  0.00  0.00    +0.041 A 
ATOM     24  C   UNL     1     -44.873  60.521   6.390  0.00  0.00    -0.043 A 
ATOM     25  C   UNL     1     -43.750  59.916   5.819  0.00  0.00    -0.055 A 
ATOM     26 CL   UNL     1     -47.456  61.302   6.359  0.00  0.00    -0.084 Cl
ENDBRANCH  19  20
ENDBRANCH   7  19
TORSDOF 4
ENDMDL
MODEL 3
REMARK VINA RESULT:    -8.117      4.585      7.762
REMARK INTER + INTRA:         -10.742
REMARK INTER:                 -10.318
REMARK INTRA:                  -0.423
REMARK UNBOUND:                -0.726
REMARK  Name = 17c.sdf
REMARK  4 active torsions:
REMARK  status: ('A' for Active; 'I' for Inactive)
REMARK    1  A    between atoms: N_7  and  C_16
REMARK    2  A    between atoms: C_9  and  C_10
REMARK    3  A    between atoms: N_11  and  N_12
REMARK    4  A    between atoms: C_16  and  C_17
REMARK                            x       y       z     vdW  Elec       q    Type
REMARK                         _______ _______ _______ _____ _____    ______ ____
ROOT
ATOM      1  C   UNL     1     -45.683  61.759   8.188  0.00  0.00    -0.061 A 
ATOM      2  C   UNL     1     -46.669  61.745   7.208  0.00  0.00    -0.060 A 
ATOM      3  C   UNL     1     -46.590  60.872   6.114  0.00  0.00    -0.038 A 
ATOM      4  C   UNL     1     -45.470  60.028   6.006  0.00  0.00    +0.050 A 
ATOM      5  C   UNL     1     -44.494  59.989   7.013  0.00  0.00    +0.009 A 
ATOM      6  C   UNL     1     -44.609  60.869   8.114  0.00  0.00    -0.052 A 
ATOM      7  N   UNL     1     -45.062  59.148   5.014  0.00  0.00    -0.342 N 
ATOM      8  C   UNL     1     -43.919  58.502   5.422  0.00  0.00    +0.015 A 
ATOM      9  C   UNL     1     -43.544  58.983   6.660  0.00  0.00    +0.020 A 
ENDROOT
BRANCH   9  10
ATOM     10  C   UNL     1     -42.401  58.539   7.433  0.00  0.00    +0.055 C 
ATOM     11  N   UNL     1     -41.405  59.347   7.600  0.00  0.00    -0.186 NA
BRANCH  11  12
ATOM     12  N   UNL     1     -40.346  58.847   8.307  0.00  0.00    -0.191 N 
ATOM     13  C   UNL     1     -39.830  59.508   9.401  0.00  0.00    +0.317 C 
ATOM     14  O   UNL     1     -38.910  59.072  10.064  0.00  0.00    -0.251 OA
ATOM     15  N   UNL     1     -40.435  60.689   9.655  0.00  0.00    -0.312 N 
ATOM     16  H   UNL     1     -39.944  57.992   8.028  0.00  0.00    +0.000 HD
ATOM     17  H   UNL     1     -41.177  60.994   9.086  0.00  0.00    +0.000 HD
ATOM     18  H   UNL     1     -40.133  61.244  10.411  0.00  0.00    +0.000 HD
ENDBRANCH  11  12
ENDBRANCH   9  10
BRANCH   7  19
ATOM     19  C   UNL     1     -45.621  59.000   3.665  0.00  0.00    +0.048 C 
BRANCH  19  20
ATOM     20  C   UNL     1     -45.095  57.773   2.962  0.00  0.00    -0.028 A 
ATOM     21  C   UNL     1     -43.929  57.851   2.186  0.00  0.00    -0.055 A 
ATOM     22  C   UNL     1     -43.557  56.790   1.359  0.00  0.00    -0.043 A 
ATOM     23  C   UNL     1     -44.324  55.629   1.335  0.00  0.00    +0.041 A 
ATOM     24  C   UNL     1     -45.416  55.490   2.188  0.00  0.00    -0.043 A 
ATOM     25  C   UNL     1     -45.800  56.558   3.002  0.00  0.00    -0.055 A 
ATOM     26 CL   UNL     1     -43.955  54.387   0.204  0.00  0.00    -0.084 Cl
ENDBRANCH  19  20
ENDBRANCH   7  19
TORSDOF 4
ENDMDL
