REMARK VINA RESULT:    -7.500      0.000      0.000
REMARK INTER + INTRA:          -9.388
REMARK INTER:                  -8.815
REMARK INTRA:                  -0.573
REMARK UNBOUND:                -0.573
REMARK  Name = 1c.sdf
REMARK  3 active torsions:
REMARK  status: ('A' for Active; 'I' for Inactive)
REMARK    1  A    between atoms: N_7  and  C_12
REMARK    2  A    between atoms: C_9  and  C_10
REMARK    3  A    between atoms: C_12  and  C_13
REMARK                            x       y       z     vdW  Elec       q    Type
REMARK                         _______ _______ _______ _____ _____    ______ ____
ROOT
ATOM      1  C   UNL     1     -41.527  60.736   9.400  0.00  0.00    -0.061 A 
ATOM      2  C   UNL     1     -41.106  59.582   8.747  0.00  0.00    -0.060 A 
ATOM      3  C   UNL     1     -41.929  58.932   7.814  0.00  0.00    -0.038 A 
ATOM      4  C   UNL     1     -43.212  59.452   7.571  0.00  0.00    +0.050 A 
ATOM      5  C   UNL     1     -43.628  60.650   8.174  0.00  0.00    +0.010 A 
ATOM      6  C   UNL     1     -42.774  61.289   9.101  0.00  0.00    -0.052 A 
ATOM      7  N   UNL     1     -44.279  58.996   6.805  0.00  0.00    -0.342 N 
ATOM      8  C   UNL     1     -45.292  59.927   6.836  0.00  0.00    +0.016 A 
ATOM      9  C   UNL     1     -44.917  60.962   7.666  0.00  0.00    +0.039 A 
ENDROOT
BRANCH   9  10
ATOM     10  C   UNL     1     -45.724  62.135   7.958  0.00  0.00    +0.152 C 
ATOM     11  O   UNL     1     -46.723  62.115   8.665  0.00  0.00    -0.296 OA
ENDBRANCH   9  10
BRANCH   7  12
ATOM     12  C   UNL     1     -44.442  57.678   6.182  0.00  0.00    +0.048 C 
BRANCH  12  13
ATOM     13  C   UNL     1     -44.311  57.735   4.679  0.00  0.00    -0.028 A 
ATOM     14  C   UNL     1     -45.379  57.332   3.867  0.00  0.00    -0.055 A 
ATOM     15  C   UNL     1     -45.201  57.171   2.492  0.00  0.00    -0.043 A 
ATOM     16  C   UNL     1     -43.965  57.452   1.916  0.00  0.00    +0.041 A 
ATOM     17  C   UNL     1     -42.928  57.967   2.690  0.00  0.00    -0.043 A 
ATOM     18  C   UNL     1     -43.102  58.112   4.071  0.00  0.00    -0.055 A 
ATOM     19 CL   UNL     1     -43.700  57.103   0.252  0.00  0.00    -0.084 Cl
ENDBRANCH  12  13
ENDBRANCH   7  12
TORSDOF 3
