REMARK  Name = 27a.sdf
REMARK  6 active torsions:
REMARK  status: ('A' for Active; 'I' for Inactive)
REMARK    1  A    between atoms: N_7  and  C_10
REMARK    2  A    between atoms: C_9  and  C_18
REMARK    3  A    between atoms: C_10  and  C_11
REMARK    4  A    between atoms: N_19  and  N_20
REMARK    5  A    between atoms: C_21  and  C_23
REMARK    6  A    between atoms: C_26  and  N_29
REMARK                            x       y       z     vdW  Elec       q    Type
REMARK                         _______ _______ _______ _____ _____    ______ ____
ROOT
ATOM      1  C   UNL     1      -2.126  -0.914  -0.061  0.00  0.00    -0.061 A 
ATOM      2  C   UNL     1      -2.179   0.468  -0.189  0.00  0.00    -0.060 A 
ATOM      3  C   UNL     1      -1.008   1.233  -0.215  0.00  0.00    -0.038 A 
ATOM      4  C   UNL     1       0.227   0.571  -0.118  0.00  0.00    +0.050 A 
ATOM      5  C   UNL     1       0.306  -0.826  -0.035  0.00  0.00    +0.009 A 
ATOM      6  C   UNL     1      -0.894  -1.571   0.008  0.00  0.00    -0.052 A 
ATOM      7  N   UNL     1       1.523   1.050  -0.070  0.00  0.00    -0.342 N 
ATOM      8  C   UNL     1       2.404  -0.002  -0.038  0.00  0.00    +0.015 A 
ATOM      9  C   UNL     1       1.691  -1.183  -0.025  0.00  0.00    +0.020 A 
ENDROOT
BRANCH   9  10
ATOM     10  C   UNL     1       2.250  -2.520  -0.005  0.00  0.00    +0.055 C 
ATOM     11  N   UNL     1       3.532  -2.684  -0.037  0.00  0.00    -0.187 NA
BRANCH  11  12
ATOM     12  N   UNL     1       3.971  -3.978  -0.028  0.00  0.00    -0.203 N 
ATOM     13  C   UNL     1       5.337  -4.234  -0.036  0.00  0.00    +0.263 C 
ATOM     14  O   UNL     1       6.221  -3.380  -0.039  0.00  0.00    -0.268 OA
ATOM     15  H   UNL     1       3.326  -4.722  -0.015  0.00  0.00    +0.000 HD
BRANCH  13  16
ATOM     16  C   UNL     1       5.722  -5.676  -0.004  0.00  0.00    +0.038 A 
ATOM     17  C   UNL     1       4.929  -6.686  -0.563  0.00  0.00    -0.048 A 
ATOM     18  C   UNL     1       5.347  -8.022  -0.499  0.00  0.00    -0.040 A 
ATOM     19  C   UNL     1       6.536  -8.374   0.147  0.00  0.00    +0.025 A 
ATOM     20  C   UNL     1       7.362  -7.355   0.624  0.00  0.00    -0.040 A 
ATOM     21  C   UNL     1       6.954  -6.018   0.567  0.00  0.00    -0.048 A 
BRANCH  19  22
ATOM     22  N   UNL     1       7.001  -9.692   0.099  0.00  0.00    -0.358 N 
ATOM     23  H   UNL     1       6.417 -10.408  -0.239  0.00  0.00    +0.000 HD
ATOM     24  H   UNL     1       7.914  -9.903   0.402  0.00  0.00    +0.000 HD
ENDBRANCH  19  22
ENDBRANCH  13  16
ENDBRANCH  11  12
ENDBRANCH   9  10
BRANCH   7  25
ATOM     25  C   UNL     1       1.925   2.451   0.051  0.00  0.00    +0.048 C 
BRANCH  25  26
ATOM     26  C   UNL     1       2.180   3.079  -1.296  0.00  0.00    -0.028 A 
ATOM     27  C   UNL     1       1.168   3.794  -1.954  0.00  0.00    -0.056 A 
ATOM     28  C   UNL     1       1.365   4.274  -3.250  0.00  0.00    -0.047 A 
ATOM     29  C   UNL     1       2.582   4.055  -3.890  0.00  0.00    +0.018 A 
ATOM     30  C   UNL     1       3.619   3.399  -3.231  0.00  0.00    -0.047 A 
ATOM     31  C   UNL     1       3.418   2.914  -1.936  0.00  0.00    -0.056 A 
ATOM     32 BR   UNL     1       2.814   4.620  -5.679  0.00  0.00    -0.050 Br
ENDBRANCH  25  26
ENDBRANCH   7  25
TORSDOF 6
