REMARK  Name = native.pdb
REMARK  11 active torsions:
REMARK  status: ('A' for Active; 'I' for Inactive)
REMARK    1  A    between atoms: C_2  and  C_3
REMARK    2  A    between atoms: C_3  and  S_4
REMARK    3  A    between atoms: N_5  and  C_6
REMARK    4  A    between atoms: C_13  and  O_20
REMARK    5  A    between atoms: C_14  and  O_18
REMARK    6  A    between atoms: C_15  and  O_16
REMARK    7  A    between atoms: O_16  and  C_17
REMARK    8  A    between atoms: O_18  and  C_19
REMARK    9  A    between atoms: O_20  and  C_21
REMARK   10  A    between atoms: C_26  and  O_29
REMARK   11  A    between atoms: O_29  and  C_30
REMARK                            x       y       z     vdW  Elec       q    Type
REMARK                         _______ _______ _______ _____ _____    ______ ____
ROOT
ATOM      1  C   UNL     1       4.297   1.314  -1.302  0.00  0.00    +0.049 C 
ATOM      2  C   UNL     1       4.838   2.398  -0.361  0.00  0.00    -0.016 A 
ATOM      3  C   UNL     1       4.825   1.887   0.892  0.00  0.00    -0.006 A 
ATOM      4  C   UNL     1       4.894   1.326  -2.675  0.00  0.00    -0.026 C 
ATOM      5  C   UNL     1       6.404   1.261  -2.442  0.00  0.00    -0.025 C 
ATOM      6  C   UNL     1       6.917   2.617  -2.796  0.00  0.00    -0.032 A 
ATOM      7  C   UNL     1       7.716   2.605  -3.951  0.00  0.00    -0.012 A 
ATOM      8  C   UNL     1       8.002   3.750  -4.664  0.00  0.00    +0.165 A 
ATOM      9  C   UNL     1       7.498   4.971  -4.183  0.00  0.00    +0.204 A 
ATOM     10  C   UNL     1       6.743   5.009  -2.922  0.00  0.00    +0.173 A 
ATOM     11  C   UNL     1       6.451   3.796  -2.171  0.00  0.00    +0.031 A 
ATOM     12  C   UNL     1       5.699   3.617  -0.772  0.00  0.00    -0.009 A 
ATOM     13  C   UNL     1       5.985   4.553   0.179  0.00  0.00    -0.050 A 
ATOM     14  C   UNL     1       5.475   4.670   1.557  0.00  0.00    -0.016 A 
ATOM     15  C   UNL     1       5.303   3.688   2.464  0.00  0.00    +0.167 A 
ATOM     16  C   UNL     1       5.634   2.335   2.017  0.00  0.00    +0.221 A 
ATOM     17  O   UNL     1       6.329   1.538   2.647  0.00  0.00    -0.284 OA
ENDROOT
BRANCH   1  20
ATOM     18  O   UNL     1       0.942  -0.035  -1.212  0.00  0.00    -0.275 OA
ATOM     19  C   UNL     1       2.171  -0.059  -1.314  0.00  0.00    +0.223 C 
ATOM     20  N   UNL     1       2.860   1.132  -1.239  0.00  0.00    -0.308 N 
ATOM     21  H   UNL     1       2.318   1.947  -1.131  0.00  0.00    +0.000 HD
BRANCH  19  22
ATOM     22  C   UNL     1       2.902  -1.390  -1.508  0.00  0.00    +0.067 C 
BRANCH  22  23
ATOM     23  S   UNL     1       3.020  -1.827  -3.264  0.00  0.00    -0.169 S 
ATOM     24  H   UNL     1       1.770  -1.957  -3.784  0.00  0.00    +0.000 HD
ENDBRANCH  22  23
ENDBRANCH  19  22
ENDBRANCH   1  20
BRANCH  10  25
ATOM     25  O   UNL     1       6.220   6.180  -2.384  0.00  0.00    -0.491 OA
ATOM     26  C   UNL     1       6.361   7.410  -3.103  0.00  0.00    +0.079 C 
ENDBRANCH  10  25
BRANCH   9  27
ATOM     27  O   UNL     1       7.687   6.155  -4.869  0.00  0.00    -0.488 OA
ATOM     28  C   UNL     1       8.293   6.190  -6.161  0.00  0.00    +0.079 C 
ENDBRANCH   9  27
BRANCH   8  29
ATOM     29  O   UNL     1       8.720   3.688  -5.829  0.00  0.00    -0.491 OA
ATOM     30  C   UNL     1       9.114   2.413  -6.331  0.00  0.00    +0.079 C 
ENDBRANCH   8  29
BRANCH  15  31
ATOM     31  O   UNL     1       4.766   3.910   3.725  0.00  0.00    -0.491 OA
ATOM     32  C   UNL     1       4.422   2.721   4.458  0.00  0.00    +0.079 C 
ENDBRANCH  15  31
TORSDOF 7
