REMARK  Name = 23c.sdf
REMARK  9 active torsions:
REMARK  status: ('A' for Active; 'I' for Inactive)
REMARK    1  A    between atoms: N_7  and  C_12
REMARK    2  A    between atoms: C_9  and  C_10
REMARK    3  A    between atoms: N_11  and  N_19
REMARK    4  A    between atoms: C_12  and  C_13
REMARK    5  A    between atoms: C_20  and  C_22
REMARK    6  A    between atoms: C_24  and  O_30
REMARK    7  A    between atoms: C_25  and  O_29
REMARK    8  A    between atoms: O_29  and  C_32
REMARK    9  A    between atoms: O_30  and  C_31
REMARK                            x       y       z     vdW  Elec       q    Type
REMARK                         _______ _______ _______ _____ _____    ______ ____
ROOT
ATOM      1  C   UNL     1      -2.116  -0.911  -0.072  0.00  0.00    -0.061 A 
ATOM      2  C   UNL     1      -2.170   0.472  -0.190  0.00  0.00    -0.060 A 
ATOM      3  C   UNL     1      -1.000   1.238  -0.207  0.00  0.00    -0.038 A 
ATOM      4  C   UNL     1       0.235   0.574  -0.110  0.00  0.00    +0.050 A 
ATOM      5  C   UNL     1       0.314  -0.823  -0.034  0.00  0.00    +0.009 A 
ATOM      6  C   UNL     1      -0.885  -1.569  -0.002  0.00  0.00    -0.052 A 
ATOM      7  N   UNL     1       1.531   1.054  -0.056  0.00  0.00    -0.342 N 
ATOM      8  C   UNL     1       2.414   0.003  -0.022  0.00  0.00    +0.015 A 
ATOM      9  C   UNL     1       1.700  -1.179  -0.016  0.00  0.00    +0.020 A 
ENDROOT
BRANCH   9  10
ATOM     10  C   UNL     1       2.263  -2.512   0.005  0.00  0.00    +0.055 C 
ATOM     11  N   UNL     1       3.546  -2.669  -0.034  0.00  0.00    -0.187 NA
BRANCH  11  12
ATOM     12  N   UNL     1       3.992  -3.964  -0.016  0.00  0.00    -0.203 N 
ATOM     13  C   UNL     1       5.357  -4.217  -0.041  0.00  0.00    +0.263 C 
ATOM     14  O   UNL     1       6.236  -3.359  -0.059  0.00  0.00    -0.268 OA
ATOM     15  H   UNL     1       3.350  -4.710   0.014  0.00  0.00    +0.000 HD
BRANCH  13  16
ATOM     16  C   UNL     1       5.754  -5.653   0.009  0.00  0.00    +0.042 A 
ATOM     17  C   UNL     1       4.957  -6.666  -0.540  0.00  0.00    -0.004 A 
ATOM     18  C   UNL     1       5.356  -8.006  -0.440  0.00  0.00    +0.162 A 
ATOM     19  C   UNL     1       6.574  -8.333   0.194  0.00  0.00    +0.162 A 
ATOM     20  C   UNL     1       7.384  -7.311   0.700  0.00  0.00    -0.016 A 
ATOM     21  C   UNL     1       6.974  -5.979   0.609  0.00  0.00    -0.046 A 
BRANCH  19  22
ATOM     22  O   UNL     1       6.878  -9.670   0.265  0.00  0.00    -0.491 OA
ATOM     23  C   UNL     1       8.093 -10.040   0.901  0.00  0.00    +0.079 C 
ENDBRANCH  19  22
BRANCH  18  24
ATOM     24  O   UNL     1       4.628  -9.067  -0.922  0.00  0.00    -0.491 OA
ATOM     25  C   UNL     1       3.402  -8.791  -1.583  0.00  0.00    +0.079 C 
ENDBRANCH  18  24
ENDBRANCH  13  16
ENDBRANCH  11  12
ENDBRANCH   9  10
BRANCH   7  26
ATOM     26  C   UNL     1       1.931   2.456   0.055  0.00  0.00    +0.048 C 
BRANCH  26  27
ATOM     27  C   UNL     1       2.197   3.067  -1.299  0.00  0.00    -0.028 A 
ATOM     28  C   UNL     1       1.190   3.772  -1.974  0.00  0.00    -0.055 A 
ATOM     29  C   UNL     1       1.400   4.239  -3.273  0.00  0.00    -0.043 A 
ATOM     30  C   UNL     1       2.623   4.016  -3.900  0.00  0.00    +0.041 A 
ATOM     31  C   UNL     1       3.652   3.363  -3.225  0.00  0.00    -0.043 A 
ATOM     32  C   UNL     1       3.440   2.891  -1.927  0.00  0.00    -0.055 A 
ATOM     33 CL   UNL     1       2.856   4.531  -5.525  0.00  0.00    -0.084 Cl
ENDBRANCH  26  27
ENDBRANCH   7  26
TORSDOF 7
