MODEL 1
REMARK VINA RESULT:    -9.174      0.000      0.000
REMARK INTER + INTRA:         -13.494
REMARK INTER:                 -12.392
REMARK INTRA:                  -1.102
REMARK UNBOUND:                -1.102
REMARK  Name = 26a.sdf
REMARK  7 active torsions:
REMARK  status: ('A' for Active; 'I' for Inactive)
REMARK    1  A    between atoms: N_7  and  C_10
REMARK    2  A    between atoms: C_9  and  C_18
REMARK    3  A    between atoms: C_10  and  C_11
REMARK    4  A    between atoms: N_19  and  N_20
REMARK    5  A    between atoms: C_21  and  C_23
REMARK    6  A    between atoms: C_26  and  O_29
REMARK    7  A    between atoms: C_28  and  O_30
REMARK                            x       y       z     vdW  Elec       q    Type
REMARK                         _______ _______ _______ _____ _____    ______ ____
ROOT
ATOM      1  C   UNL     1      18.138  15.733  31.226  0.00  0.00    -0.061 A 
ATOM      2  C   UNL     1      17.701  14.890  32.241  0.00  0.00    -0.060 A 
ATOM      3  C   UNL     1      18.569  13.970  32.837  0.00  0.00    -0.038 A 
ATOM      4  C   UNL     1      19.901  13.923  32.391  0.00  0.00    +0.050 A 
ATOM      5  C   UNL     1      20.376  14.796  31.404  0.00  0.00    +0.009 A 
ATOM      6  C   UNL     1      19.472  15.702  30.806  0.00  0.00    -0.052 A 
ATOM      7  N   UNL     1      20.956  13.101  32.744  0.00  0.00    -0.342 N 
ATOM      8  C   UNL     1      22.088  13.488  32.074  0.00  0.00    +0.015 A 
ATOM      9  C   UNL     1      21.772  14.537  31.235  0.00  0.00    +0.020 A 
ENDROOT
BRANCH   9  10
ATOM     10  C   UNL     1      22.699  15.223  30.360  0.00  0.00    +0.055 C 
ATOM     11  N   UNL     1      22.531  15.166  29.079  0.00  0.00    -0.187 NA
BRANCH  11  12
ATOM     12  N   UNL     1      23.464  15.835  28.346  0.00  0.00    -0.203 N 
ATOM     13  C   UNL     1      24.517  15.166  27.751  0.00  0.00    +0.267 C 
ATOM     14  O   UNL     1      24.703  13.950  27.808  0.00  0.00    -0.268 OA
ATOM     15  H   UNL     1      23.388  16.811  28.239  0.00  0.00    +0.000 HD
BRANCH  13  16
ATOM     16  C   UNL     1      25.491  16.021  26.991  0.00  0.00    +0.080 A 
ATOM     17  C   UNL     1      26.842  15.953  27.370  0.00  0.00    -0.043 A 
ATOM     18  C   UNL     1      27.812  16.725  26.727  0.00  0.00    -0.019 A 
ATOM     19  C   UNL     1      27.430  17.572  25.693  0.00  0.00    +0.120 A 
ATOM     20  C   UNL     1      26.102  17.653  25.290  0.00  0.00    +0.022 A 
ATOM     21  C   UNL     1      25.133  16.880  25.938  0.00  0.00    +0.132 A 
BRANCH  19  22
ATOM     22  O   UNL     1      28.335  18.355  25.041  0.00  0.00    -0.507 OA
ATOM     23  H   UNL     1      29.247  18.285  25.244  0.00  0.00    +0.000 HD
ENDBRANCH  19  22
BRANCH  21  24
ATOM     24  O   UNL     1      23.829  16.989  25.523  0.00  0.00    -0.506 OA
ATOM     25  H   UNL     1      23.472  17.830  25.314  0.00  0.00    +0.000 HD
ENDBRANCH  21  24
ENDBRANCH  13  16
ENDBRANCH  11  12
ENDBRANCH   9  10
BRANCH   7  26
ATOM     26  C   UNL     1      20.889  11.919  33.600  0.00  0.00    +0.048 C 
BRANCH  26  27
ATOM     27  C   UNL     1      21.164  10.654  32.828  0.00  0.00    -0.028 A 
ATOM     28  C   UNL     1      20.118   9.960  32.202  0.00  0.00    -0.056 A 
ATOM     29  C   UNL     1      20.350   8.730  31.586  0.00  0.00    -0.047 A 
ATOM     30  C   UNL     1      21.634   8.192  31.582  0.00  0.00    +0.018 A 
ATOM     31  C   UNL     1      22.696   8.892  32.150  0.00  0.00    -0.047 A 
ATOM     32  C   UNL     1      22.461  10.121  32.771  0.00  0.00    -0.056 A 
ATOM     33 BR   UNL     1      21.930   6.483  30.830  0.00  0.00    -0.050 Br
ENDBRANCH  26  27
ENDBRANCH   7  26
TORSDOF 7
ENDMDL
