REMARK VINA RESULT:    -7.930      3.526      6.606
REMARK INTER + INTRA:         -10.474
REMARK INTER:                  -9.785
REMARK INTRA:                  -0.688
REMARK UNBOUND:                -0.690
REMARK  Name = 17a.sdf
REMARK  4 active torsions:
REMARK  status: ('A' for Active; 'I' for Inactive)
REMARK    1  A    between atoms: N_7  and  C_16
REMARK    2  A    between atoms: C_9  and  C_10
REMARK    3  A    between atoms: N_11  and  N_12
REMARK    4  A    between atoms: C_16  and  C_17
REMARK                            x       y       z     vdW  Elec       q    Type
REMARK                         _______ _______ _______ _____ _____    ______ ____
ROOT
ATOM      1  C   UNL     1      40.170   0.391  27.242  0.00  0.00    -0.061 A 
ATOM      2  C   UNL     1      41.240   0.602  26.381  0.00  0.00    -0.060 A 
ATOM      3  C   UNL     1      41.612  -0.365  25.439  0.00  0.00    -0.038 A 
ATOM      4  C   UNL     1      40.875  -1.561  25.384  0.00  0.00    +0.050 A 
ATOM      5  C   UNL     1      39.757  -1.768  26.203  0.00  0.00    +0.009 A 
ATOM      6  C   UNL     1      39.414  -0.780  27.153  0.00  0.00    -0.052 A 
ATOM      7  N   UNL     1      41.037  -2.709  24.627  0.00  0.00    -0.342 N 
ATOM      8  C   UNL     1      40.007  -3.579  24.882  0.00  0.00    +0.015 A 
ATOM      9  C   UNL     1      39.188  -3.027  25.847  0.00  0.00    +0.020 A 
ENDROOT
BRANCH   9  10
ATOM     10  C   UNL     1      37.982  -3.630  26.374  0.00  0.00    +0.055 C 
ATOM     11  N   UNL     1      37.609  -4.785  25.928  0.00  0.00    -0.186 NA
BRANCH  11  12
ATOM     12  N   UNL     1      36.455  -5.274  26.466  0.00  0.00    -0.191 N 
ATOM     13  C   UNL     1      35.438  -5.752  25.679  0.00  0.00    +0.317 C 
ATOM     14  O   UNL     1      34.370  -6.142  26.125  0.00  0.00    -0.251 OA
ATOM     15  N   UNL     1      35.720  -5.753  24.350  0.00  0.00    -0.312 N 
ATOM     16  H   UNL     1      36.349  -5.286  27.444  0.00  0.00    +0.000 HD
ATOM     17  H   UNL     1      36.594  -5.429  24.033  0.00  0.00    +0.000 HD
ATOM     18  H   UNL     1      35.052  -6.077  23.706  0.00  0.00    +0.000 HD
ENDBRANCH  11  12
ENDBRANCH   9  10
BRANCH   7  19
ATOM     19  C   UNL     1      42.178  -3.043  23.773  0.00  0.00    +0.048 C 
BRANCH  19  20
ATOM     20  C   UNL     1      41.737  -3.650  22.464  0.00  0.00    -0.028 A 
ATOM     21  C   UNL     1      41.878  -5.028  22.242  0.00  0.00    -0.056 A 
ATOM     22  C   UNL     1      41.619  -5.573  20.984  0.00  0.00    -0.047 A 
ATOM     23  C   UNL     1      41.197  -4.746  19.946  0.00  0.00    +0.018 A 
ATOM     24  C   UNL     1      40.975  -3.390  20.171  0.00  0.00    -0.047 A 
ATOM     25  C   UNL     1      41.241  -2.843  21.428  0.00  0.00    -0.056 A 
ATOM     26 BR   UNL     1      40.974  -5.461  18.211  0.00  0.00    -0.050 Br
ENDBRANCH  19  20
ENDBRANCH   7  19
TORSDOF 4
