MODEL 1
REMARK VINA RESULT:    -8.923      0.000      0.000
REMARK INTER + INTRA:         -11.700
REMARK INTER:                 -11.010
REMARK INTRA:                  -0.690
REMARK UNBOUND:                -0.690
REMARK  Name = 17a.sdf
REMARK  4 active torsions:
REMARK  status: ('A' for Active; 'I' for Inactive)
REMARK    1  A    between atoms: N_7  and  C_16
REMARK    2  A    between atoms: C_9  and  C_10
REMARK    3  A    between atoms: N_11  and  N_12
REMARK    4  A    between atoms: C_16  and  C_17
REMARK                            x       y       z     vdW  Elec       q    Type
REMARK                         _______ _______ _______ _____ _____    ______ ____
ROOT
ATOM      1  C   UNL     1      38.134  -8.128  19.904  0.00  0.00    -0.061 A 
ATOM      2  C   UNL     1      38.791  -8.427  18.716  0.00  0.00    -0.060 A 
ATOM      3  C   UNL     1      40.060  -7.907  18.442  0.00  0.00    -0.038 A 
ATOM      4  C   UNL     1      40.661  -7.069  19.398  0.00  0.00    +0.050 A 
ATOM      5  C   UNL     1      40.040  -6.802  20.626  0.00  0.00    +0.009 A 
ATOM      6  C   UNL     1      38.753  -7.332  20.870  0.00  0.00    -0.052 A 
ATOM      7  N   UNL     1      41.850  -6.362  19.386  0.00  0.00    -0.342 N 
ATOM      8  C   UNL     1      42.031  -5.743  20.598  0.00  0.00    +0.015 A 
ATOM      9  C   UNL     1      40.934  -6.001  21.396  0.00  0.00    +0.020 A 
ENDROOT
BRANCH   9  10
ATOM     10  C   UNL     1      40.754  -5.538  22.757  0.00  0.00    +0.055 C 
ATOM     11  N   UNL     1      39.777  -4.735  23.024  0.00  0.00    -0.186 NA
BRANCH  11  12
ATOM     12  N   UNL     1      39.688  -4.335  24.325  0.00  0.00    -0.191 N 
ATOM     13  C   UNL     1      38.934  -3.251  24.696  0.00  0.00    +0.317 C 
ATOM     14  O   UNL     1      38.880  -2.831  25.842  0.00  0.00    -0.251 OA
ATOM     15  N   UNL     1      38.248  -2.678  23.674  0.00  0.00    -0.312 N 
ATOM     16  H   UNL     1      40.177  -4.837  25.015  0.00  0.00    +0.000 HD
ATOM     17  H   UNL     1      38.320  -3.047  22.765  0.00  0.00    +0.000 HD
ATOM     18  H   UNL     1      37.679  -1.893  23.843  0.00  0.00    +0.000 HD
ENDBRANCH  11  12
ENDBRANCH   9  10
BRANCH   7  19
ATOM     19  C   UNL     1      42.745  -6.167  18.244  0.00  0.00    +0.048 C 
BRANCH  19  20
ATOM     20  C   UNL     1      42.987  -4.704  17.968  0.00  0.00    -0.028 A 
ATOM     21  C   UNL     1      44.296  -4.205  17.902  0.00  0.00    -0.056 A 
ATOM     22  C   UNL     1      44.528  -2.833  17.803  0.00  0.00    -0.047 A 
ATOM     23  C   UNL     1      43.451  -1.952  17.747  0.00  0.00    +0.018 A 
ATOM     24  C   UNL     1      42.145  -2.436  17.730  0.00  0.00    -0.047 A 
ATOM     25  C   UNL     1      41.913  -3.810  17.837  0.00  0.00    -0.056 A 
ATOM     26 BR   UNL     1      43.764  -0.089  17.746  0.00  0.00    -0.050 Br
ENDBRANCH  19  20
ENDBRANCH   7  19
TORSDOF 4
ENDMDL
MODEL 2
REMARK VINA RESULT:    -8.874      1.480      1.719
REMARK INTER + INTRA:         -11.639
REMARK INTER:                 -10.965
REMARK INTRA:                  -0.675
REMARK UNBOUND:                -0.690
REMARK  Name = 17a.sdf
REMARK  4 active torsions:
REMARK  status: ('A' for Active; 'I' for Inactive)
REMARK    1  A    between atoms: N_7  and  C_16
REMARK    2  A    between atoms: C_9  and  C_10
REMARK    3  A    between atoms: N_11  and  N_12
REMARK    4  A    between atoms: C_16  and  C_17
REMARK                            x       y       z     vdW  Elec       q    Type
REMARK                         _______ _______ _______ _____ _____    ______ ____
ROOT
ATOM      1  C   UNL     1      37.177  -7.666  20.452  0.00  0.00    -0.061 A 
ATOM      2  C   UNL     1      38.201  -8.360  19.818  0.00  0.00    -0.060 A 
ATOM      3  C   UNL     1      39.512  -7.872  19.817  0.00  0.00    -0.038 A 
ATOM      4  C   UNL     1      39.774  -6.656  20.472  0.00  0.00    +0.050 A 
ATOM      5  C   UNL     1      38.767  -5.971  21.166  0.00  0.00    +0.009 A 
ATOM      6  C   UNL     1      37.450  -6.481  21.139  0.00  0.00    -0.052 A 
ATOM      7  N   UNL     1      40.927  -5.899  20.584  0.00  0.00    -0.342 N 
ATOM      8  C   UNL     1      40.692  -4.818  21.397  0.00  0.00    +0.015 A 
ATOM      9  C   UNL     1      39.367  -4.834  21.786  0.00  0.00    +0.020 A 
ENDROOT
BRANCH   9  10
ATOM     10  C   UNL     1      38.734  -3.871  22.662  0.00  0.00    +0.055 C 
ATOM     11  N   UNL     1      38.583  -4.161  23.912  0.00  0.00    -0.186 NA
BRANCH  11  12
ATOM     12  N   UNL     1      37.964  -3.206  24.664  0.00  0.00    -0.191 N 
ATOM     13  C   UNL     1      37.220  -3.528  25.771  0.00  0.00    +0.317 C 
ATOM     14  O   UNL     1      36.606  -2.704  26.431  0.00  0.00    -0.251 OA
ATOM     15  N   UNL     1      37.224  -4.853  26.074  0.00  0.00    -0.312 N 
ATOM     16  H   UNL     1      38.053  -2.260  24.406  0.00  0.00    +0.000 HD
ATOM     17  H   UNL     1      37.732  -5.483  25.515  0.00  0.00    +0.000 HD
ATOM     18  H   UNL     1      36.718  -5.181  26.851  0.00  0.00    +0.000 HD
ENDBRANCH  11  12
ENDBRANCH   9  10
BRANCH   7  19
ATOM     19  C   UNL     1      42.184  -6.103  19.864  0.00  0.00    +0.048 C 
BRANCH  19  20
ATOM     20  C   UNL     1      42.674  -4.829  19.221  0.00  0.00    -0.028 A 
ATOM     21  C   UNL     1      43.892  -4.260  19.619  0.00  0.00    -0.056 A 
ATOM     22  C   UNL     1      44.277  -3.006  19.145  0.00  0.00    -0.047 A 
ATOM     23  C   UNL     1      43.455  -2.321  18.254  0.00  0.00    +0.018 A 
ATOM     24  C   UNL     1      42.282  -2.907  17.786  0.00  0.00    -0.047 A 
ATOM     25  C   UNL     1      41.893  -4.159  18.266  0.00  0.00    -0.056 A 
ATOM     26 BR   UNL     1      43.913  -0.569  17.715  0.00  0.00    -0.050 Br
ENDBRANCH  19  20
ENDBRANCH   7  19
TORSDOF 4
ENDMDL
MODEL 3
REMARK VINA RESULT:    -7.930      3.526      6.606
REMARK INTER + INTRA:         -10.474
REMARK INTER:                  -9.785
REMARK INTRA:                  -0.688
REMARK UNBOUND:                -0.690
REMARK  Name = 17a.sdf
REMARK  4 active torsions:
REMARK  status: ('A' for Active; 'I' for Inactive)
REMARK    1  A    between atoms: N_7  and  C_16
REMARK    2  A    between atoms: C_9  and  C_10
REMARK    3  A    between atoms: N_11  and  N_12
REMARK    4  A    between atoms: C_16  and  C_17
REMARK                            x       y       z     vdW  Elec       q    Type
REMARK                         _______ _______ _______ _____ _____    ______ ____
ROOT
ATOM      1  C   UNL     1      40.170   0.391  27.242  0.00  0.00    -0.061 A 
ATOM      2  C   UNL     1      41.240   0.602  26.381  0.00  0.00    -0.060 A 
ATOM      3  C   UNL     1      41.612  -0.365  25.439  0.00  0.00    -0.038 A 
ATOM      4  C   UNL     1      40.875  -1.561  25.384  0.00  0.00    +0.050 A 
ATOM      5  C   UNL     1      39.757  -1.768  26.203  0.00  0.00    +0.009 A 
ATOM      6  C   UNL     1      39.414  -0.780  27.153  0.00  0.00    -0.052 A 
ATOM      7  N   UNL     1      41.037  -2.709  24.627  0.00  0.00    -0.342 N 
ATOM      8  C   UNL     1      40.007  -3.579  24.882  0.00  0.00    +0.015 A 
ATOM      9  C   UNL     1      39.188  -3.027  25.847  0.00  0.00    +0.020 A 
ENDROOT
BRANCH   9  10
ATOM     10  C   UNL     1      37.982  -3.630  26.374  0.00  0.00    +0.055 C 
ATOM     11  N   UNL     1      37.609  -4.785  25.928  0.00  0.00    -0.186 NA
BRANCH  11  12
ATOM     12  N   UNL     1      36.455  -5.274  26.466  0.00  0.00    -0.191 N 
ATOM     13  C   UNL     1      35.438  -5.752  25.679  0.00  0.00    +0.317 C 
ATOM     14  O   UNL     1      34.370  -6.142  26.125  0.00  0.00    -0.251 OA
ATOM     15  N   UNL     1      35.720  -5.753  24.350  0.00  0.00    -0.312 N 
ATOM     16  H   UNL     1      36.349  -5.286  27.444  0.00  0.00    +0.000 HD
ATOM     17  H   UNL     1      36.594  -5.429  24.033  0.00  0.00    +0.000 HD
ATOM     18  H   UNL     1      35.052  -6.077  23.706  0.00  0.00    +0.000 HD
ENDBRANCH  11  12
ENDBRANCH   9  10
BRANCH   7  19
ATOM     19  C   UNL     1      42.178  -3.043  23.773  0.00  0.00    +0.048 C 
BRANCH  19  20
ATOM     20  C   UNL     1      41.737  -3.650  22.464  0.00  0.00    -0.028 A 
ATOM     21  C   UNL     1      41.878  -5.028  22.242  0.00  0.00    -0.056 A 
ATOM     22  C   UNL     1      41.619  -5.573  20.984  0.00  0.00    -0.047 A 
ATOM     23  C   UNL     1      41.197  -4.746  19.946  0.00  0.00    +0.018 A 
ATOM     24  C   UNL     1      40.975  -3.390  20.171  0.00  0.00    -0.047 A 
ATOM     25  C   UNL     1      41.241  -2.843  21.428  0.00  0.00    -0.056 A 
ATOM     26 BR   UNL     1      40.974  -5.461  18.211  0.00  0.00    -0.050 Br
ENDBRANCH  19  20
ENDBRANCH   7  19
TORSDOF 4
ENDMDL
