REMARK VINA RESULT:    -8.923      0.000      0.000
REMARK INTER + INTRA:         -11.700
REMARK INTER:                 -11.010
REMARK INTRA:                  -0.690
REMARK UNBOUND:                -0.690
REMARK  Name = 17a.sdf
REMARK  4 active torsions:
REMARK  status: ('A' for Active; 'I' for Inactive)
REMARK    1  A    between atoms: N_7  and  C_16
REMARK    2  A    between atoms: C_9  and  C_10
REMARK    3  A    between atoms: N_11  and  N_12
REMARK    4  A    between atoms: C_16  and  C_17
REMARK                            x       y       z     vdW  Elec       q    Type
REMARK                         _______ _______ _______ _____ _____    ______ ____
ROOT
ATOM      1  C   UNL     1      38.134  -8.128  19.904  0.00  0.00    -0.061 A 
ATOM      2  C   UNL     1      38.791  -8.427  18.716  0.00  0.00    -0.060 A 
ATOM      3  C   UNL     1      40.060  -7.907  18.442  0.00  0.00    -0.038 A 
ATOM      4  C   UNL     1      40.661  -7.069  19.398  0.00  0.00    +0.050 A 
ATOM      5  C   UNL     1      40.040  -6.802  20.626  0.00  0.00    +0.009 A 
ATOM      6  C   UNL     1      38.753  -7.332  20.870  0.00  0.00    -0.052 A 
ATOM      7  N   UNL     1      41.850  -6.362  19.386  0.00  0.00    -0.342 N 
ATOM      8  C   UNL     1      42.031  -5.743  20.598  0.00  0.00    +0.015 A 
ATOM      9  C   UNL     1      40.934  -6.001  21.396  0.00  0.00    +0.020 A 
ENDROOT
BRANCH   9  10
ATOM     10  C   UNL     1      40.754  -5.538  22.757  0.00  0.00    +0.055 C 
ATOM     11  N   UNL     1      39.777  -4.735  23.024  0.00  0.00    -0.186 NA
BRANCH  11  12
ATOM     12  N   UNL     1      39.688  -4.335  24.325  0.00  0.00    -0.191 N 
ATOM     13  C   UNL     1      38.934  -3.251  24.696  0.00  0.00    +0.317 C 
ATOM     14  O   UNL     1      38.880  -2.831  25.842  0.00  0.00    -0.251 OA
ATOM     15  N   UNL     1      38.248  -2.678  23.674  0.00  0.00    -0.312 N 
ATOM     16  H   UNL     1      40.177  -4.837  25.015  0.00  0.00    +0.000 HD
ATOM     17  H   UNL     1      38.320  -3.047  22.765  0.00  0.00    +0.000 HD
ATOM     18  H   UNL     1      37.679  -1.893  23.843  0.00  0.00    +0.000 HD
ENDBRANCH  11  12
ENDBRANCH   9  10
BRANCH   7  19
ATOM     19  C   UNL     1      42.745  -6.167  18.244  0.00  0.00    +0.048 C 
BRANCH  19  20
ATOM     20  C   UNL     1      42.987  -4.704  17.968  0.00  0.00    -0.028 A 
ATOM     21  C   UNL     1      44.296  -4.205  17.902  0.00  0.00    -0.056 A 
ATOM     22  C   UNL     1      44.528  -2.833  17.803  0.00  0.00    -0.047 A 
ATOM     23  C   UNL     1      43.451  -1.952  17.747  0.00  0.00    +0.018 A 
ATOM     24  C   UNL     1      42.145  -2.436  17.730  0.00  0.00    -0.047 A 
ATOM     25  C   UNL     1      41.913  -3.810  17.837  0.00  0.00    -0.056 A 
ATOM     26 BR   UNL     1      43.764  -0.089  17.746  0.00  0.00    -0.050 Br
ENDBRANCH  19  20
ENDBRANCH   7  19
TORSDOF 4
