REMARK VINA RESULT:    -8.659      1.484      1.744
REMARK INTER + INTRA:         -11.374
REMARK INTER:                 -10.754
REMARK INTRA:                  -0.619
REMARK UNBOUND:                -0.689
REMARK  Name = 17c.sdf
REMARK  4 active torsions:
REMARK  status: ('A' for Active; 'I' for Inactive)
REMARK    1  A    between atoms: N_7  and  C_16
REMARK    2  A    between atoms: C_9  and  C_10
REMARK    3  A    between atoms: N_11  and  N_12
REMARK    4  A    between atoms: C_16  and  C_17
REMARK                            x       y       z     vdW  Elec       q    Type
REMARK                         _______ _______ _______ _____ _____    ______ ____
ROOT
ATOM      1  C   UNL     1      38.037  -8.005  20.122  0.00  0.00    -0.061 A 
ATOM      2  C   UNL     1      38.707  -8.392  18.967  0.00  0.00    -0.060 A 
ATOM      3  C   UNL     1      40.001  -7.927  18.691  0.00  0.00    -0.038 A 
ATOM      4  C   UNL     1      40.599  -7.028  19.592  0.00  0.00    +0.050 A 
ATOM      5  C   UNL     1      39.960  -6.672  20.790  0.00  0.00    +0.009 A 
ATOM      6  C   UNL     1      38.663  -7.170  21.049  0.00  0.00    -0.052 A 
ATOM      7  N   UNL     1      41.797  -6.330  19.550  0.00  0.00    -0.342 N 
ATOM      8  C   UNL     1      41.957  -5.629  20.722  0.00  0.00    +0.015 A 
ATOM      9  C   UNL     1      40.849  -5.828  21.522  0.00  0.00    +0.020 A 
ENDROOT
BRANCH   9  10
ATOM     10  C   UNL     1      40.649  -5.273  22.846  0.00  0.00    +0.055 C 
ATOM     11  N   UNL     1      39.545  -4.649  23.104  0.00  0.00    -0.186 NA
BRANCH  11  12
ATOM     12  N   UNL     1      39.441  -4.119  24.361  0.00  0.00    -0.191 N 
ATOM     13  C   UNL     1      39.226  -2.772  24.562  0.00  0.00    +0.317 C 
ATOM     14  O   UNL     1      39.101  -2.280  25.666  0.00  0.00    -0.251 OA
ATOM     15  N   UNL     1      39.181  -2.054  23.419  0.00  0.00    -0.312 N 
ATOM     16  H   UNL     1      39.521  -4.715  25.141  0.00  0.00    +0.000 HD
ATOM     17  H   UNL     1      39.287  -2.504  22.550  0.00  0.00    +0.000 HD
ATOM     18  H   UNL     1      39.041  -1.080  23.455  0.00  0.00    +0.000 HD
ENDBRANCH  11  12
ENDBRANCH   9  10
BRANCH   7  19
ATOM     19  C   UNL     1      42.710  -6.189  18.409  0.00  0.00    +0.048 C 
BRANCH  19  20
ATOM     20  C   UNL     1      42.907  -4.747  18.011  0.00  0.00    -0.028 A 
ATOM     21  C   UNL     1      44.201  -4.230  17.855  0.00  0.00    -0.055 A 
ATOM     22  C   UNL     1      44.402  -2.857  17.705  0.00  0.00    -0.043 A 
ATOM     23  C   UNL     1      43.307  -1.998  17.667  0.00  0.00    +0.041 A 
ATOM     24  C   UNL     1      42.012  -2.507  17.700  0.00  0.00    -0.043 A 
ATOM     25  C   UNL     1      41.811  -3.880  17.869  0.00  0.00    -0.055 A 
ATOM     26 CL   UNL     1      43.559  -0.297  17.640  0.00  0.00    -0.084 Cl
ENDBRANCH  19  20
ENDBRANCH   7  19
TORSDOF 4
