REMARK VINA RESULT:    -7.539      2.739      3.131
REMARK INTER + INTRA:          -9.518
REMARK INTER:                  -9.048
REMARK INTRA:                  -0.470
REMARK UNBOUND:                -0.657
REMARK  Name = 1c.sdf
REMARK  3 active torsions:
REMARK  status: ('A' for Active; 'I' for Inactive)
REMARK    1  A    between atoms: N_7  and  C_12
REMARK    2  A    between atoms: C_9  and  C_10
REMARK    3  A    between atoms: C_12  and  C_13
REMARK                            x       y       z     vdW  Elec       q    Type
REMARK                         _______ _______ _______ _____ _____    ______ ____
ROOT
ATOM      1  C   UNL     1      38.871  -8.391  18.688  0.00  0.00    -0.061 A 
ATOM      2  C   UNL     1      38.343  -8.112  19.945  0.00  0.00    -0.060 A 
ATOM      3  C   UNL     1      38.972  -7.209  20.815  0.00  0.00    -0.038 A 
ATOM      4  C   UNL     1      40.174  -6.607  20.407  0.00  0.00    +0.050 A 
ATOM      5  C   UNL     1      40.688  -6.828  19.118  0.00  0.00    +0.010 A 
ATOM      6  C   UNL     1      40.027  -7.735  18.259  0.00  0.00    -0.052 A 
ATOM      7  N   UNL     1      41.073  -5.771  21.059  0.00  0.00    -0.342 N 
ATOM      8  C   UNL     1      42.061  -5.389  20.179  0.00  0.00    +0.016 A 
ATOM      9  C   UNL     1      41.846  -6.020  18.972  0.00  0.00    +0.039 A 
ENDROOT
BRANCH   9  10
ATOM     10  C   UNL     1      42.681  -5.874  17.791  0.00  0.00    +0.152 C 
ATOM     11  O   UNL     1      42.903  -6.779  16.998  0.00  0.00    -0.296 OA
ENDBRANCH   9  10
BRANCH   7  12
ATOM     12  C   UNL     1      41.126  -5.443  22.488  0.00  0.00    +0.048 C 
BRANCH  12  13
ATOM     13  C   UNL     1      41.088  -3.954  22.736  0.00  0.00    -0.028 A 
ATOM     14  C   UNL     1      39.977  -3.204  22.328  0.00  0.00    -0.055 A 
ATOM     15  C   UNL     1      40.018  -1.809  22.351  0.00  0.00    -0.043 A 
ATOM     16  C   UNL     1      41.155  -1.157  22.820  0.00  0.00    +0.041 A 
ATOM     17  C   UNL     1      42.221  -1.888  23.340  0.00  0.00    -0.043 A 
ATOM     18  C   UNL     1      42.187  -3.286  23.301  0.00  0.00    -0.055 A 
ATOM     19 CL   UNL     1      41.267   0.555  22.700  0.00  0.00    -0.084 Cl
ENDBRANCH  12  13
ENDBRANCH   7  12
TORSDOF 3
