REMARK VINA RESULT:    -7.561      3.850      5.994
REMARK INTER + INTRA:          -9.544
REMARK INTER:                  -9.010
REMARK INTRA:                  -0.534
REMARK UNBOUND:                -0.657
REMARK  Name = 1c.sdf
REMARK  3 active torsions:
REMARK  status: ('A' for Active; 'I' for Inactive)
REMARK    1  A    between atoms: N_7  and  C_12
REMARK    2  A    between atoms: C_9  and  C_10
REMARK    3  A    between atoms: C_12  and  C_13
REMARK                            x       y       z     vdW  Elec       q    Type
REMARK                         _______ _______ _______ _____ _____    ______ ____
ROOT
ATOM      1  C   UNL     1      37.673  -7.793  20.111  0.00  0.00    -0.061 A 
ATOM      2  C   UNL     1      38.661  -8.366  19.317  0.00  0.00    -0.060 A 
ATOM      3  C   UNL     1      39.988  -7.911  19.364  0.00  0.00    -0.038 A 
ATOM      4  C   UNL     1      40.301  -6.835  20.212  0.00  0.00    +0.050 A 
ATOM      5  C   UNL     1      39.330  -6.288  21.067  0.00  0.00    +0.010 A 
ATOM      6  C   UNL     1      38.004  -6.774  21.006  0.00  0.00    -0.052 A 
ATOM      7  N   UNL     1      41.466  -6.102  20.406  0.00  0.00    -0.342 N 
ATOM      8  C   UNL     1      41.271  -5.198  21.424  0.00  0.00    +0.016 A 
ATOM      9  C   UNL     1      39.965  -5.293  21.857  0.00  0.00    +0.039 A 
ENDROOT
BRANCH   9  10
ATOM     10  C   UNL     1      39.374  -4.495  22.919  0.00  0.00    +0.152 C 
ATOM     11  O   UNL     1      38.679  -4.959  23.813  0.00  0.00    -0.296 OA
ENDBRANCH   9  10
BRANCH   7  12
ATOM     12  C   UNL     1      42.684  -6.113  19.588  0.00  0.00    +0.048 C 
BRANCH  12  13
ATOM     13  C   UNL     1      42.927  -4.788  18.906  0.00  0.00    -0.028 A 
ATOM     14  C   UNL     1      44.160  -4.139  19.056  0.00  0.00    -0.055 A 
ATOM     15  C   UNL     1      44.325  -2.824  18.618  0.00  0.00    -0.043 A 
ATOM     16  C   UNL     1      43.271  -2.165  17.992  0.00  0.00    +0.041 A 
ATOM     17  C   UNL     1      42.078  -2.835  17.729  0.00  0.00    -0.043 A 
ATOM     18  C   UNL     1      41.907  -4.147  18.183  0.00  0.00    -0.055 A 
ATOM     19 CL   UNL     1      43.422  -0.498  17.597  0.00  0.00    -0.084 Cl
ENDBRANCH  12  13
ENDBRANCH   7  12
TORSDOF 3
