REMARK VINA RESULT:    -9.169      2.840      3.320
REMARK INTER + INTRA:         -12.247
REMARK INTER:                 -11.343
REMARK INTRA:                  -0.904
REMARK UNBOUND:                -0.398
REMARK  Name = 8a.sdf
REMARK  5 active torsions:
REMARK  status: ('A' for Active; 'I' for Inactive)
REMARK    1  A    between atoms: N_7  and  C_12
REMARK    2  A    between atoms: C_9  and  C_10
REMARK    3  A    between atoms: N_11  and  N_20
REMARK    4  A    between atoms: C_12  and  C_13
REMARK    5  A    between atoms: C_21  and  C_23
REMARK                            x       y       z     vdW  Elec       q    Type
REMARK                         _______ _______ _______ _____ _____    ______ ____
ROOT
ATOM      1  C   UNL     1      39.347  -7.965  18.356  0.00  0.00    -0.061 A 
ATOM      2  C   UNL     1      40.535  -7.981  17.636  0.00  0.00    -0.060 A 
ATOM      3  C   UNL     1      41.633  -7.215  18.043  0.00  0.00    -0.038 A 
ATOM      4  C   UNL     1      41.509  -6.435  19.206  0.00  0.00    +0.050 A 
ATOM      5  C   UNL     1      40.336  -6.439  19.971  0.00  0.00    +0.009 A 
ATOM      6  C   UNL     1      39.238  -7.207  19.524  0.00  0.00    -0.052 A 
ATOM      7  N   UNL     1      42.385  -5.559  19.817  0.00  0.00    -0.342 N 
ATOM      8  C   UNL     1      41.829  -5.079  20.977  0.00  0.00    +0.015 A 
ATOM      9  C   UNL     1      40.560  -5.607  21.113  0.00  0.00    +0.020 A 
ENDROOT
BRANCH   9  10
ATOM     10  C   UNL     1      39.650  -5.360  22.207  0.00  0.00    +0.055 C 
ATOM     11  N   UNL     1      39.958  -4.498  23.124  0.00  0.00    -0.187 NA
BRANCH  11  12
ATOM     12  N   UNL     1      39.042  -4.335  24.124  0.00  0.00    -0.203 N 
ATOM     13  C   UNL     1      39.403  -4.620  25.434  0.00  0.00    +0.263 C 
ATOM     14  O   UNL     1      40.505  -5.008  25.798  0.00  0.00    -0.268 OA
ATOM     15  H   UNL     1      38.133  -4.018  23.917  0.00  0.00    +0.000 HD
BRANCH  13  16
ATOM     16  C   UNL     1      38.342  -4.387  26.457  0.00  0.00    +0.038 A 
ATOM     17  C   UNL     1      38.286  -5.097  27.664  0.00  0.00    -0.049 A 
ATOM     18  C   UNL     1      37.266  -4.835  28.584  0.00  0.00    -0.047 A 
ATOM     19  C   UNL     1      36.310  -3.857  28.303  0.00  0.00    +0.018 A 
ATOM     20  C   UNL     1      36.368  -3.130  27.119  0.00  0.00    -0.047 A 
ATOM     21  C   UNL     1      37.388  -3.391  26.198  0.00  0.00    -0.049 A 
ATOM     22 BR   UNL     1      34.932  -3.513  29.549  0.00  0.00    -0.050 Br
ENDBRANCH  13  16
ENDBRANCH  11  12
ENDBRANCH   9  10
BRANCH   7  23
ATOM     23  C   UNL     1      43.669  -5.105  19.283  0.00  0.00    +0.048 C 
BRANCH  23  24
ATOM     24  C   UNL     1      43.694  -3.610  19.083  0.00  0.00    -0.028 A 
ATOM     25  C   UNL     1      43.003  -3.020  18.014  0.00  0.00    -0.056 A 
ATOM     26  C   UNL     1      43.114  -1.651  17.766  0.00  0.00    -0.047 A 
ATOM     27  C   UNL     1      43.906  -0.860  18.593  0.00  0.00    +0.018 A 
ATOM     28  C   UNL     1      44.558  -1.419  19.691  0.00  0.00    -0.047 A 
ATOM     29  C   UNL     1      44.451  -2.789  19.935  0.00  0.00    -0.056 A 
ATOM     30 BR   UNL     1      44.125   0.977  18.205  0.00  0.00    -0.050 Br
ENDBRANCH  23  24
ENDBRANCH   7  23
TORSDOF 5
