MODEL 1
REMARK VINA RESULT:    -9.761      0.000      0.000
REMARK INTER + INTRA:         -11.121
REMARK INTER:                 -10.902
REMARK INTRA:                  -0.219
REMARK UNBOUND:                -0.219
REMARK  Name = 0a.sdf
REMARK  2 active torsions:
REMARK  status: ('A' for Active; 'I' for Inactive)
REMARK    1  A    between atoms: N_7  and  C_10
REMARK    2  A    between atoms: C_10  and  C_11
REMARK                            x       y       z     vdW  Elec       q    Type
REMARK                         _______ _______ _______ _____ _____    ______ ____
ROOT
ATOM      1  C   UNL     1       2.722  17.647 -18.651  0.00  0.00    -0.061 A 
ATOM      2  C   UNL     1       2.112  16.422 -18.411  0.00  0.00    -0.060 A 
ATOM      3  C   UNL     1       0.721  16.280 -18.519  0.00  0.00    -0.038 A 
ATOM      4  C   UNL     1      -0.043  17.401 -18.881  0.00  0.00    +0.049 A 
ATOM      5  C   UNL     1       0.566  18.632 -19.162  0.00  0.00    -0.000 A 
ATOM      6  C   UNL     1       1.965  18.753 -19.039  0.00  0.00    -0.053 A 
ATOM      7  N   UNL     1      -1.410  17.596 -19.010  0.00  0.00    -0.342 N 
ATOM      8  C   UNL     1      -1.660  18.876 -19.447  0.00  0.00    +0.006 A 
ATOM      9  C   UNL     1      -0.457  19.538 -19.544  0.00  0.00    -0.036 A 
ENDROOT
BRANCH   7  10
ATOM     10  C   UNL     1      -2.466  16.667 -18.606  0.00  0.00    +0.048 C 
BRANCH  10  11
ATOM     11  C   UNL     1      -3.706  17.389 -18.144  0.00  0.00    -0.028 A 
ATOM     12  C   UNL     1      -3.836  17.787 -16.806  0.00  0.00    -0.056 A 
ATOM     13  C   UNL     1      -5.034  18.328 -16.338  0.00  0.00    -0.047 A 
ATOM     14  C   UNL     1      -6.105  18.491 -17.211  0.00  0.00    +0.018 A 
ATOM     15  C   UNL     1      -5.972  18.172 -18.559  0.00  0.00    -0.047 A 
ATOM     16  C   UNL     1      -4.773  17.626 -19.027  0.00  0.00    -0.056 A 
ATOM     17 BR   UNL     1      -7.767  19.103 -16.550  0.00  0.00    -0.050 Br
ENDBRANCH  10  11
ENDBRANCH   7  10
TORSDOF 2
ENDMDL
