MODEL 1
REMARK VINA RESULT:   -10.239      0.000      0.000
REMARK INTER + INTRA:         -13.131
REMARK INTER:                 -12.633
REMARK INTRA:                  -0.498
REMARK UNBOUND:                -0.498
REMARK  Name = 10.sdf
REMARK  5 active torsions:
REMARK  status: ('A' for Active; 'I' for Inactive)
REMARK    1  A    between atoms: C_9  and  C_10
REMARK    2  A    between atoms: C_11  and  C_12
REMARK    3  A    between atoms: C_12  and  C_13
REMARK    4  A    between atoms: C_17  and  O_20
REMARK    5  A    between atoms: O_20  and  C_21
REMARK                            x       y       z     vdW  Elec       q    Type
REMARK                         _______ _______ _______ _____ _____    ______ ____
ROOT
ATOM      1  C   UNL     1      -2.084  17.529 -19.415  0.00  0.00    -0.049 C 
ATOM      2  C   UNL     1      -3.218  18.247 -19.313  0.00  0.00    -0.014 C 
ENDROOT
BRANCH   1  11
ATOM      3  C   UNL     1       2.119  15.858 -18.081  0.00  0.00    -0.061 A 
ATOM      4  C   UNL     1       3.095  16.850 -18.114  0.00  0.00    -0.060 A 
ATOM      5  C   UNL     1       2.777  18.147 -18.513  0.00  0.00    -0.038 A 
ATOM      6  C   UNL     1       1.451  18.412 -18.878  0.00  0.00    +0.047 A 
ATOM      7  C   UNL     1       0.441  17.445 -18.856  0.00  0.00    +0.007 A 
ATOM      8  C   UNL     1       0.792  16.140 -18.445  0.00  0.00    -0.052 A 
ATOM      9  N   UNL     1       0.885  19.586 -19.306  0.00  0.00    -0.360 N 
ATOM     10  C   UNL     1      -0.446  19.407 -19.555  0.00  0.00    +0.010 A 
ATOM     11  C   UNL     1      -0.769  18.091 -19.286  0.00  0.00    +0.000 A 
ATOM     12  H   UNL     1       1.369  20.436 -19.418  0.00  0.00    +0.000 HD
ENDBRANCH   1  11
BRANCH   2  13
ATOM     13  C   UNL     1      -4.580  17.654 -19.401  0.00  0.00    +0.186 C 
ATOM     14  O   UNL     1      -4.899  16.862 -20.279  0.00  0.00    -0.287 OA
BRANCH  13  15
ATOM     15  C   UNL     1      -5.568  18.122 -18.383  0.00  0.00    +0.022 A 
ATOM     16  C   UNL     1      -5.152  18.335 -17.064  0.00  0.00    -0.047 A 
ATOM     17  C   UNL     1      -6.071  18.745 -16.087  0.00  0.00    -0.019 A 
ATOM     18  C   UNL     1      -7.409  18.956 -16.424  0.00  0.00    +0.120 A 
ATOM     19  C   UNL     1      -7.816  18.772 -17.747  0.00  0.00    -0.019 A 
ATOM     20  C   UNL     1      -6.905  18.364 -18.724  0.00  0.00    -0.047 A 
BRANCH  18  21
ATOM     21  O   UNL     1      -8.410  19.337 -15.575  0.00  0.00    -0.495 OA
ATOM     22  C   UNL     1      -9.654  18.657 -15.693  0.00  0.00    +0.079 C 
ENDBRANCH  18  21
ENDBRANCH  13  15
ENDBRANCH   2  13
TORSDOF 4
ENDMDL
