MODEL 1
REMARK VINA RESULT:    -8.473      0.000      0.000
REMARK INTER + INTRA:          -9.577
REMARK INTER:                  -9.464
REMARK INTRA:                  -0.113
REMARK UNBOUND:                -0.113
REMARK  Name = 12.sdf
REMARK  2 active torsions:
REMARK  status: ('A' for Active; 'I' for Inactive)
REMARK    1  A    between atoms: C_9  and  C_10
REMARK    2  A    between atoms: C_10  and  C_11
REMARK                            x       y       z     vdW  Elec       q    Type
REMARK                         _______ _______ _______ _____ _____    ______ ____
ROOT
ATOM      1  C   UNL     1       0.917  17.249 -18.954  0.00  0.00    -0.061 A 
ATOM      2  C   UNL     1       1.168  18.535 -19.427  0.00  0.00    -0.060 A 
ATOM      3  C   UNL     1       0.123  19.438 -19.633  0.00  0.00    -0.038 A 
ATOM      4  C   UNL     1      -1.177  19.007 -19.342  0.00  0.00    +0.047 A 
ATOM      5  C   UNL     1      -1.462  17.732 -18.848  0.00  0.00    +0.003 A 
ATOM      6  C   UNL     1      -0.390  16.837 -18.657  0.00  0.00    -0.052 A 
ATOM      7  N   UNL     1      -2.370  19.681 -19.446  0.00  0.00    -0.360 N 
ATOM      8  C   UNL     1      -3.400  18.884 -19.029  0.00  0.00    +0.006 A 
ATOM      9  C   UNL     1      -2.879  17.668 -18.627  0.00  0.00    -0.012 A 
ATOM     10  H   UNL     1      -2.469  20.604 -19.775  0.00  0.00    +0.000 HD
ENDROOT
BRANCH   9  11
ATOM     11  C   UNL     1      -3.660  16.539 -18.023  0.00  0.00    +0.072 C 
BRANCH  11  12
ATOM     12  C   UNL     1      -4.563  16.906 -16.867  0.00  0.00    +0.309 C 
ATOM     13  O   UNL     1      -4.174  16.924 -15.705  0.00  0.00    -0.251 OA
ATOM     14  O   UNL     1      -5.809  17.313 -17.197  0.00  0.00    -0.480 OA
ENDBRANCH  11  12
ENDBRANCH   9  11
TORSDOF 2
ENDMDL
