MODEL 1
REMARK VINA RESULT:   -10.339      0.000      0.000
REMARK INTER + INTRA:         -14.150
REMARK INTER:                 -13.362
REMARK INTRA:                  -0.789
REMARK UNBOUND:                -0.789
REMARK  Name = 15d.sdf
REMARK  5 active torsions:
REMARK  status: ('A' for Active; 'I' for Inactive)
REMARK    1  A    between atoms: C_9  and  C_10
REMARK    2  A    between atoms: C_10  and  O_11
REMARK    3  A    between atoms: O_11  and  C_12
REMARK    4  A    between atoms: C_12  and  C_13
REMARK    5  A    between atoms: C_15  and  C_16
REMARK                            x       y       z     vdW  Elec       q    Type
REMARK                         _______ _______ _______ _____ _____    ______ ____
ROOT
ATOM      1  C   UNL     1       5.580  16.948 -19.436  0.00  0.00    -0.061 A 
ATOM      2  C   UNL     1       6.173  15.854 -18.821  0.00  0.00    -0.060 A 
ATOM      3  C   UNL     1       5.510  15.154 -17.808  0.00  0.00    -0.037 A 
ATOM      4  C   UNL     1       4.228  15.587 -17.417  0.00  0.00    +0.057 A 
ATOM      5  C   UNL     1       3.614  16.689 -18.031  0.00  0.00    +0.007 A 
ATOM      6  C   UNL     1       4.305  17.371 -19.052  0.00  0.00    -0.052 A 
ATOM      7  N   UNL     1       3.324  15.053 -16.499  0.00  0.00    -0.283 N 
ATOM      8  C   UNL     1       2.200  15.869 -16.490  0.00  0.00    +0.020 A 
ATOM      9  C   UNL     1       2.328  16.862 -17.438  0.00  0.00    +0.015 A 
ATOM     10  C   UNL     1       3.483  13.877 -15.722  0.00  0.00    +0.263 C 
ATOM     11  O   UNL     1       4.621  13.483 -15.482  0.00  0.00    -0.267 OA
ENDROOT
BRANCH  10  12
ATOM     12  C   UNL     1       2.332  13.096 -15.194  0.00  0.00    +0.040 A 
ATOM     13  C   UNL     1       1.928  13.255 -13.861  0.00  0.00    -0.049 A 
ATOM     14  C   UNL     1       0.890  12.480 -13.349  0.00  0.00    -0.061 A 
ATOM     15  C   UNL     1       0.231  11.570 -14.173  0.00  0.00    -0.062 A 
ATOM     16  C   UNL     1       0.590  11.455 -15.518  0.00  0.00    -0.061 A 
ATOM     17  C   UNL     1       1.636  12.222 -16.034  0.00  0.00    -0.049 A 
ENDBRANCH  10  12
BRANCH   9  18
ATOM     18  C   UNL     1       1.301  17.893 -17.795  0.00  0.00    +0.120 C 
BRANCH  18  19
ATOM     19  O   UNL     1       0.617  17.562 -19.015  0.00  0.00    -0.456 OA
BRANCH  19  20
ATOM     20  C   UNL     1      -0.277  18.474 -19.461  0.00  0.00    +0.339 C 
ATOM     21  O   UNL     1      -0.022  19.490 -20.085  0.00  0.00    -0.245 OA
BRANCH  20  22
ATOM     22  C   UNL     1      -1.664  18.093 -19.072  0.00  0.00    +0.059 A 
ATOM     23  C   UNL     1      -2.657  19.083 -19.099  0.00  0.00    -0.048 A 
ATOM     24  C   UNL     1      -3.967  18.782 -18.718  0.00  0.00    -0.061 A 
ATOM     25  C   UNL     1      -4.295  17.489 -18.316  0.00  0.00    -0.062 A 
ATOM     26  C   UNL     1      -3.318  16.494 -18.303  0.00  0.00    -0.061 A 
ATOM     27  C   UNL     1      -2.005  16.792 -18.680  0.00  0.00    -0.048 A 
ENDBRANCH  20  22
ENDBRANCH  19  20
ENDBRANCH  18  19
ENDBRANCH   9  18
TORSDOF 5
ENDMDL
