MODEL 1
REMARK VINA RESULT:    -8.679      0.000      0.000
REMARK INTER + INTRA:          -9.900
REMARK INTER:                  -9.693
REMARK INTRA:                  -0.207
REMARK UNBOUND:                -0.207
REMARK  Name = 17.sdf
REMARK  2 active torsions:
REMARK  status: ('A' for Active; 'I' for Inactive)
REMARK    1  A    between atoms: C_9  and  C_10
REMARK    2  A    between atoms: N_11  and  N_12
REMARK                            x       y       z     vdW  Elec       q    Type
REMARK                         _______ _______ _______ _____ _____    ______ ____
ROOT
ATOM      1  C   UNL     1      -4.433  17.943 -15.348  0.00  0.00    -0.061 A 
ATOM      2  C   UNL     1      -5.651  18.365 -15.874  0.00  0.00    -0.060 A 
ATOM      3  C   UNL     1      -5.847  18.454 -17.255  0.00  0.00    -0.038 A 
ATOM      4  C   UNL     1      -4.773  18.111 -18.084  0.00  0.00    +0.047 A 
ATOM      5  C   UNL     1      -3.538  17.686 -17.589  0.00  0.00    +0.008 A 
ATOM      6  C   UNL     1      -3.371  17.598 -16.191  0.00  0.00    -0.052 A 
ATOM      7  N   UNL     1      -4.686  18.113 -19.455  0.00  0.00    -0.360 N 
ATOM      8  C   UNL     1      -3.440  17.715 -19.844  0.00  0.00    +0.011 A 
ATOM      9  C   UNL     1      -2.692  17.435 -18.714  0.00  0.00    +0.020 A 
ATOM     10  H   UNL     1      -5.415  18.365 -20.068  0.00  0.00    +0.000 HD
ENDROOT
BRANCH   9  11
ATOM     11  C   UNL     1      -1.318  16.983 -18.718  0.00  0.00    +0.055 C 
ATOM     12  N   UNL     1      -0.419  17.831 -19.093  0.00  0.00    -0.186 NA
BRANCH  12  13
ATOM     13  N   UNL     1       0.876  17.407 -19.100  0.00  0.00    -0.191 N 
ATOM     14  C   UNL     1       1.904  18.320 -19.123  0.00  0.00    +0.317 C 
ATOM     15  O   UNL     1       3.087  18.004 -19.122  0.00  0.00    -0.251 OA
ATOM     16  N   UNL     1       1.494  19.612 -19.152  0.00  0.00    -0.312 N 
ATOM     17  H   UNL     1       1.075  16.443 -19.087  0.00  0.00    +0.000 HD
ATOM     18  H   UNL     1       0.533  19.825 -19.152  0.00  0.00    +0.000 HD
ATOM     19  H   UNL     1       2.158  20.339 -19.172  0.00  0.00    +0.000 HD
ENDBRANCH  12  13
ENDBRANCH   9  11
TORSDOF 2
ENDMDL
