MODEL 1
REMARK VINA RESULT:    -8.572      0.000      0.000
REMARK INTER + INTRA:         -10.619
REMARK INTER:                 -10.076
REMARK INTRA:                  -0.543
REMARK UNBOUND:                -0.543
REMARK  Name = 17d.sdf
REMARK  3 active torsions:
REMARK  status: ('A' for Active; 'I' for Inactive)
REMARK    1  A    between atoms: C_9  and  C_10
REMARK    2  A    between atoms: N_11  and  N_12
REMARK    3  A    between atoms: C_16  and  C_17
REMARK                            x       y       z     vdW  Elec       q    Type
REMARK                         _______ _______ _______ _____ _____    ______ ____
ROOT
ATOM      1  C   UNL     1       5.679  16.864 -19.338  0.00  0.00    -0.061 A 
ATOM      2  C   UNL     1       6.261  15.800 -18.661  0.00  0.00    -0.060 A 
ATOM      3  C   UNL     1       5.557  15.105 -17.675  0.00  0.00    -0.037 A 
ATOM      4  C   UNL     1       4.241  15.506 -17.378  0.00  0.00    +0.057 A 
ATOM      5  C   UNL     1       3.632  16.574 -18.055  0.00  0.00    +0.009 A 
ATOM      6  C   UNL     1       4.371  17.259 -19.045  0.00  0.00    -0.052 A 
ATOM      7  N   UNL     1       3.305  14.969 -16.494  0.00  0.00    -0.282 N 
ATOM      8  C   UNL     1       2.161  15.738 -16.579  0.00  0.00    +0.023 A 
ATOM      9  C   UNL     1       2.311  16.713 -17.541  0.00  0.00    +0.020 A 
ATOM     10  C   UNL     1       3.455  13.836 -15.658  0.00  0.00    +0.263 C 
ATOM     11  O   UNL     1       4.590  13.494 -15.337  0.00  0.00    -0.267 OA
ENDROOT
BRANCH  10  12
ATOM     12  C   UNL     1       2.300  13.047 -15.155  0.00  0.00    +0.040 A 
ATOM     13  C   UNL     1       1.635  12.150 -16.002  0.00  0.00    -0.049 A 
ATOM     14  C   UNL     1       0.525  11.445 -15.544  0.00  0.00    -0.061 A 
ATOM     15  C   UNL     1       0.096  11.612 -14.228  0.00  0.00    -0.062 A 
ATOM     16  C   UNL     1       0.784  12.467 -13.367  0.00  0.00    -0.061 A 
ATOM     17  C   UNL     1       1.892  13.183 -13.824  0.00  0.00    -0.049 A 
ENDBRANCH  10  12
BRANCH   9  18
ATOM     18  C   UNL     1       1.286  17.668 -17.905  0.00  0.00    +0.055 C 
ATOM     19  N   UNL     1       0.584  17.423 -18.964  0.00  0.00    -0.186 NA
BRANCH  19  20
ATOM     20  N   UNL     1      -0.374  18.344 -19.278  0.00  0.00    -0.191 N 
ATOM     21  C   UNL     1      -1.711  18.063 -19.123  0.00  0.00    +0.317 C 
ATOM     22  O   UNL     1      -2.594  18.881 -19.339  0.00  0.00    -0.251 OA
ATOM     23  N   UNL     1      -1.968  16.790 -18.725  0.00  0.00    -0.312 N 
ATOM     24  H   UNL     1      -0.102  19.226 -19.622  0.00  0.00    +0.000 HD
ATOM     25  H   UNL     1      -1.224  16.166 -18.563  0.00  0.00    +0.000 HD
ATOM     26  H   UNL     1      -2.897  16.493 -18.598  0.00  0.00    +0.000 HD
ENDBRANCH  19  20
ENDBRANCH   9  18
TORSDOF 3
ENDMDL
