MODEL 1
REMARK VINA RESULT:    -9.611      0.000      0.000
REMARK INTER + INTRA:         -12.394
REMARK INTER:                 -12.420
REMARK INTRA:                   0.026
REMARK UNBOUND:                 0.026
REMARK  Name = 17g.sdf
REMARK  6 active torsions:
REMARK  status: ('A' for Active; 'I' for Inactive)
REMARK    1  A    between atoms: N_7  and  C_16
REMARK    2  A    between atoms: C_9  and  C_10
REMARK    3  A    between atoms: N_11  and  N_12
REMARK    4  A    between atoms: C_16  and  C_17
REMARK    5  A    between atoms: C_20  and  O_23
REMARK    6  A    between atoms: O_23  and  C_24
REMARK                            x       y       z     vdW  Elec       q    Type
REMARK                         _______ _______ _______ _____ _____    ______ ____
ROOT
ATOM      1  C   UNL     1      -4.202  18.020 -14.396  0.00  0.00    -0.061 A 
ATOM      2  C   UNL     1      -3.037  17.692 -15.079  0.00  0.00    -0.060 A 
ATOM      3  C   UNL     1      -3.009  17.651 -16.477  0.00  0.00    -0.038 A 
ATOM      4  C   UNL     1      -4.189  17.956 -17.179  0.00  0.00    +0.050 A 
ATOM      5  C   UNL     1      -5.361  18.334 -16.512  0.00  0.00    +0.009 A 
ATOM      6  C   UNL     1      -5.364  18.352 -15.098  0.00  0.00    -0.052 A 
ATOM      7  N   UNL     1      -4.478  17.952 -18.531  0.00  0.00    -0.342 N 
ATOM      8  C   UNL     1      -5.763  18.388 -18.730  0.00  0.00    +0.015 A 
ATOM      9  C   UNL     1      -6.344  18.640 -17.502  0.00  0.00    +0.020 A 
ENDROOT
BRANCH   9  10
ATOM     10  C   UNL     1      -7.690  19.126 -17.286  0.00  0.00    +0.055 C 
ATOM     11  N   UNL     1      -8.190  19.095 -16.093  0.00  0.00    -0.186 NA
BRANCH  11  12
ATOM     12  N   UNL     1      -9.474  19.555 -15.984  0.00  0.00    -0.191 N 
ATOM     13  C   UNL     1     -10.452  18.812 -15.363  0.00  0.00    +0.317 C 
ATOM     14  O   UNL     1     -11.599  19.207 -15.215  0.00  0.00    -0.251 OA
ATOM     15  N   UNL     1     -10.031  17.596 -14.935  0.00  0.00    -0.312 N 
ATOM     16  H   UNL     1      -9.703  20.437 -16.357  0.00  0.00    +0.000 HD
ATOM     17  H   UNL     1      -9.097  17.321 -15.078  0.00  0.00    +0.000 HD
ATOM     18  H   UNL     1     -10.660  16.989 -14.483  0.00  0.00    +0.000 HD
ENDBRANCH  11  12
ENDBRANCH   9  10
BRANCH   7  19
ATOM     19  C   UNL     1      -3.621  17.450 -19.604  0.00  0.00    +0.048 C 
BRANCH  19  20
ATOM     20  C   UNL     1      -2.180  17.846 -19.405  0.00  0.00    -0.028 A 
ATOM     21  C   UNL     1      -1.791  19.182 -19.537  0.00  0.00    -0.053 A 
ATOM     22  C   UNL     1      -0.441  19.532 -19.488  0.00  0.00    -0.020 A 
ATOM     23  C   UNL     1       0.541  18.564 -19.278  0.00  0.00    +0.120 A 
ATOM     24  C   UNL     1       0.160  17.240 -19.078  0.00  0.00    -0.020 A 
ATOM     25  C   UNL     1      -1.194  16.882 -19.143  0.00  0.00    -0.053 A 
BRANCH  23  26
ATOM     26  O   UNL     1       1.822  19.034 -19.361  0.00  0.00    -0.495 OA
ATOM     27  C   UNL     1       2.874  18.112 -19.116  0.00  0.00    +0.079 C 
ENDBRANCH  23  26
ENDBRANCH  19  20
ENDBRANCH   7  19
TORSDOF 5
ENDMDL
