MODEL 1
REMARK VINA RESULT:    -9.998      0.000      0.000
REMARK INTER + INTRA:         -12.950
REMARK INTER:                 -12.920
REMARK INTRA:                  -0.030
REMARK UNBOUND:                -0.030
REMARK  Name = 18a.sdf
REMARK  5 active torsions:
REMARK  status: ('A' for Active; 'I' for Inactive)
REMARK    1  A    between atoms: N_7  and  C_12
REMARK    2  A    between atoms: C_9  and  C_10
REMARK    3  A    between atoms: N_11  and  N_19
REMARK    4  A    between atoms: C_12  and  C_13
REMARK    5  A    between atoms: C_20  and  C_22
REMARK                            x       y       z     vdW  Elec       q    Type
REMARK                         _______ _______ _______ _____ _____    ______ ____
ROOT
ATOM      1  C   UNL     1       6.276  15.842 -18.773  0.00  0.00    -0.061 A 
ATOM      2  C   UNL     1       6.018  16.828 -19.717  0.00  0.00    -0.060 A 
ATOM      3  C   UNL     1       4.823  17.557 -19.690  0.00  0.00    -0.038 A 
ATOM      4  C   UNL     1       3.885  17.268 -18.684  0.00  0.00    +0.050 A 
ATOM      5  C   UNL     1       4.151  16.317 -17.690  0.00  0.00    +0.009 A 
ATOM      6  C   UNL     1       5.359  15.589 -17.749  0.00  0.00    -0.052 A 
ATOM      7  N   UNL     1       2.612  17.759 -18.441  0.00  0.00    -0.342 N 
ATOM      8  C   UNL     1       2.120  17.210 -17.282  0.00  0.00    +0.015 A 
ATOM      9  C   UNL     1       3.050  16.324 -16.778  0.00  0.00    +0.020 A 
ENDROOT
BRANCH   9  10
ATOM     10  C   UNL     1       2.920  15.548 -15.562  0.00  0.00    +0.055 C 
ATOM     11  N   UNL     1       2.850  14.255 -15.628  0.00  0.00    -0.187 NA
BRANCH  11  12
ATOM     12  N   UNL     1       2.717  13.601 -14.435  0.00  0.00    -0.203 N 
ATOM     13  C   UNL     1       2.209  12.310 -14.418  0.00  0.00    +0.263 C 
ATOM     14  O   UNL     1       1.871  11.673 -15.410  0.00  0.00    -0.268 OA
ATOM     15  H   UNL     1       2.978  14.044 -13.594  0.00  0.00    +0.000 HD
BRANCH  13  16
ATOM     16  C   UNL     1       2.117  11.663 -13.075  0.00  0.00    +0.038 A 
ATOM     17  C   UNL     1       2.216  10.276 -12.900  0.00  0.00    -0.050 A 
ATOM     18  C   UNL     1       2.129   9.729 -11.610  0.00  0.00    -0.061 A 
ATOM     19  C   UNL     1       1.952  10.560 -10.505  0.00  0.00    -0.062 A 
ATOM     20  C   UNL     1       1.874  11.941 -10.675  0.00  0.00    -0.061 A 
ATOM     21  C   UNL     1       1.960  12.491 -11.957  0.00  0.00    -0.050 A 
ENDBRANCH  13  16
ENDBRANCH  11  12
ENDBRANCH   9  10
BRANCH   7  22
ATOM     22  C   UNL     1       1.826  18.625 -19.322  0.00  0.00    +0.048 C 
BRANCH  22  23
ATOM     23  C   UNL     1       0.344  18.388 -19.164  0.00  0.00    -0.028 A 
ATOM     24  C   UNL     1      -0.146  17.101 -18.903  0.00  0.00    -0.056 A 
ATOM     25  C   UNL     1      -1.519  16.849 -18.917  0.00  0.00    -0.047 A 
ATOM     26  C   UNL     1      -2.410  17.887 -19.170  0.00  0.00    +0.018 A 
ATOM     27  C   UNL     1      -1.945  19.188 -19.347  0.00  0.00    -0.047 A 
ATOM     28  C   UNL     1      -0.571  19.438 -19.342  0.00  0.00    -0.056 A 
ATOM     29 BR   UNL     1      -4.257  17.519 -19.328  0.00  0.00    -0.050 Br
ENDBRANCH  22  23
ENDBRANCH   7  22
TORSDOF 5
ENDMDL
