MODEL 1
REMARK VINA RESULT:    -9.791      0.000      0.000
REMARK INTER + INTRA:         -12.721
REMARK INTER:                 -12.653
REMARK INTRA:                  -0.068
REMARK UNBOUND:                -0.068
REMARK  Name = 18c.sdf
REMARK  5 active torsions:
REMARK  status: ('A' for Active; 'I' for Inactive)
REMARK    1  A    between atoms: N_7  and  C_12
REMARK    2  A    between atoms: C_9  and  C_10
REMARK    3  A    between atoms: N_11  and  N_19
REMARK    4  A    between atoms: C_12  and  C_13
REMARK    5  A    between atoms: C_20  and  C_22
REMARK                            x       y       z     vdW  Elec       q    Type
REMARK                         _______ _______ _______ _____ _____    ______ ____
ROOT
ATOM      1  C   UNL     1       6.160  15.618 -18.564  0.00  0.00    -0.061 A 
ATOM      2  C   UNL     1       5.956  16.615 -19.510  0.00  0.00    -0.060 A 
ATOM      3  C   UNL     1       4.782  17.375 -19.514  0.00  0.00    -0.038 A 
ATOM      4  C   UNL     1       3.810  17.111 -18.533  0.00  0.00    +0.050 A 
ATOM      5  C   UNL     1       4.017  16.145 -17.539  0.00  0.00    +0.009 A 
ATOM      6  C   UNL     1       5.206  15.382 -17.570  0.00  0.00    -0.052 A 
ATOM      7  N   UNL     1       2.551  17.643 -18.319  0.00  0.00    -0.342 N 
ATOM      8  C   UNL     1       2.008  17.105 -17.179  0.00  0.00    +0.015 A 
ATOM      9  C   UNL     1       2.888  16.176 -16.662  0.00  0.00    +0.020 A 
ENDROOT
BRANCH   9  10
ATOM     10  C   UNL     1       2.692  15.392 -15.460  0.00  0.00    +0.055 C 
ATOM     11  N   UNL     1       2.621  14.104 -15.537  0.00  0.00    -0.187 NA
BRANCH  11  12
ATOM     12  N   UNL     1       2.420  13.443 -14.356  0.00  0.00    -0.203 N 
ATOM     13  C   UNL     1       2.909  12.155 -14.199  0.00  0.00    +0.263 C 
ATOM     14  O   UNL     1       3.554  11.536 -15.046  0.00  0.00    -0.268 OA
ATOM     15  H   UNL     1       1.929  13.879 -13.622  0.00  0.00    +0.000 HD
BRANCH  13  16
ATOM     16  C   UNL     1       2.648  11.514 -12.879  0.00  0.00    +0.038 A 
ATOM     17  C   UNL     1       2.817  10.138 -12.665  0.00  0.00    -0.050 A 
ATOM     18  C   UNL     1       2.561   9.589 -11.405  0.00  0.00    -0.061 A 
ATOM     19  C   UNL     1       2.144  10.409 -10.355  0.00  0.00    -0.062 A 
ATOM     20  C   UNL     1       1.992  11.780 -10.557  0.00  0.00    -0.061 A 
ATOM     21  C   UNL     1       2.249  12.332 -11.814  0.00  0.00    -0.050 A 
ENDBRANCH  13  16
ENDBRANCH  11  12
ENDBRANCH   9  10
BRANCH   7  22
ATOM     22  C   UNL     1       1.825  18.548 -19.211  0.00  0.00    +0.048 C 
BRANCH  22  23
ATOM     23  C   UNL     1       0.333  18.339 -19.128  0.00  0.00    -0.028 A 
ATOM     24  C   UNL     1      -0.195  17.055 -18.929  0.00  0.00    -0.055 A 
ATOM     25  C   UNL     1      -1.573  16.839 -18.982  0.00  0.00    -0.043 A 
ATOM     26  C   UNL     1      -2.432  17.908 -19.218  0.00  0.00    +0.041 A 
ATOM     27  C   UNL     1      -1.929  19.200 -19.354  0.00  0.00    -0.043 A 
ATOM     28  C   UNL     1      -0.549  19.416 -19.307  0.00  0.00    -0.055 A 
ATOM     29 CL   UNL     1      -4.122  17.627 -19.371  0.00  0.00    -0.084 Cl
ENDBRANCH  22  23
ENDBRANCH   7  22
TORSDOF 5
ENDMDL
