MODEL 1
REMARK VINA RESULT:    -9.486      0.000      0.000
REMARK INTER + INTRA:         -11.775
REMARK INTER:                 -11.704
REMARK INTRA:                  -0.071
REMARK UNBOUND:                -0.071
REMARK  Name = 18d.sdf
REMARK  4 active torsions:
REMARK  status: ('A' for Active; 'I' for Inactive)
REMARK    1  A    between atoms: C_9  and  C_10
REMARK    2  A    between atoms: N_11  and  N_12
REMARK    3  A    between atoms: C_13  and  C_15
REMARK    4  A    between atoms: C_16  and  C_17
REMARK                            x       y       z     vdW  Elec       q    Type
REMARK                         _______ _______ _______ _____ _____    ______ ____
ROOT
ATOM      1  C   UNL     1       7.578  16.198 -16.517  0.00  0.00    -0.061 A 
ATOM      2  C   UNL     1       7.376  17.220 -17.435  0.00  0.00    -0.060 A 
ATOM      3  C   UNL     1       6.127  17.412 -18.032  0.00  0.00    -0.037 A 
ATOM      4  C   UNL     1       5.077  16.537 -17.698  0.00  0.00    +0.057 A 
ATOM      5  C   UNL     1       5.254  15.507 -16.759  0.00  0.00    +0.009 A 
ATOM      6  C   UNL     1       6.527  15.341 -16.170  0.00  0.00    -0.052 A 
ATOM      7  N   UNL     1       3.748  16.499 -18.127  0.00  0.00    -0.282 N 
ATOM      8  C   UNL     1       3.133  15.438 -17.487  0.00  0.00    +0.023 A 
ATOM      9  C   UNL     1       4.013  14.816 -16.624  0.00  0.00    +0.020 A 
ATOM     10  C   UNL     1       3.112  17.362 -19.055  0.00  0.00    +0.263 C 
ATOM     11  O   UNL     1       3.793  17.834 -19.972  0.00  0.00    -0.267 OA
ENDROOT
BRANCH  10  12
ATOM     12  C   UNL     1       1.665  17.673 -19.002  0.00  0.00    +0.040 A 
ATOM     13  C   UNL     1       0.736  16.669 -18.696  0.00  0.00    -0.049 A 
ATOM     14  C   UNL     1      -0.625  16.926 -18.822  0.00  0.00    -0.061 A 
ATOM     15  C   UNL     1      -1.061  18.195 -19.198  0.00  0.00    -0.062 A 
ATOM     16  C   UNL     1      -0.139  19.222 -19.417  0.00  0.00    -0.061 A 
ATOM     17  C   UNL     1       1.227  18.966 -19.311  0.00  0.00    -0.049 A 
ENDBRANCH  10  12
BRANCH   9  18
ATOM     18  C   UNL     1       3.685  13.679 -15.781  0.00  0.00    +0.055 C 
ATOM     19  N   UNL     1       2.511  13.616 -15.239  0.00  0.00    -0.187 NA
BRANCH  19  20
ATOM     20  N   UNL     1       2.245  12.531 -14.446  0.00  0.00    -0.203 N 
ATOM     21  C   UNL     1       1.333  11.577 -14.881  0.00  0.00    +0.263 C 
ATOM     22  O   UNL     1       0.720  11.614 -15.948  0.00  0.00    -0.268 OA
ATOM     23  H   UNL     1       2.696  12.429 -13.577  0.00  0.00    +0.000 HD
BRANCH  21  24
ATOM     24  C   UNL     1       1.129  10.410 -13.977  0.00  0.00    +0.038 A 
ATOM     25  C   UNL     1       0.125   9.459 -14.205  0.00  0.00    -0.050 A 
ATOM     26  C   UNL     1      -0.044   8.394 -13.315  0.00  0.00    -0.061 A 
ATOM     27  C   UNL     1       0.796   8.265 -12.208  0.00  0.00    -0.062 A 
ATOM     28  C   UNL     1       1.820   9.186 -11.997  0.00  0.00    -0.061 A 
ATOM     29  C   UNL     1       1.990  10.253 -12.880  0.00  0.00    -0.050 A 
ENDBRANCH  21  24
ENDBRANCH  19  20
ENDBRANCH   9  18
TORSDOF 4
ENDMDL
