MODEL 1
REMARK VINA RESULT:    -8.776      0.000      0.000
REMARK INTER + INTRA:         -11.170
REMARK INTER:                 -10.828
REMARK INTRA:                  -0.343
REMARK UNBOUND:                -0.343
REMARK  Name = 19.sdf
REMARK  5 active torsions:
REMARK  status: ('A' for Active; 'I' for Inactive)
REMARK    1  A    between atoms: C_9  and  C_10
REMARK    2  A    between atoms: C_10  and  C_11
REMARK    3  A    between atoms: C_11  and  O_13
REMARK    4  A    between atoms: O_13  and  C_14
REMARK    5  A    between atoms: C_14  and  C_15
REMARK                            x       y       z     vdW  Elec       q    Type
REMARK                         _______ _______ _______ _____ _____    ______ ____
ROOT
ATOM      1  C   UNL     1       1.711  16.760 -18.687  0.00  0.00    -0.061 A 
ATOM      2  C   UNL     1       2.254  18.000 -19.009  0.00  0.00    -0.060 A 
ATOM      3  C   UNL     1       1.432  19.085 -19.328  0.00  0.00    -0.038 A 
ATOM      4  C   UNL     1       0.049  18.876 -19.296  0.00  0.00    +0.047 A 
ATOM      5  C   UNL     1      -0.531  17.653 -18.961  0.00  0.00    +0.003 A 
ATOM      6  C   UNL     1       0.325  16.571 -18.657  0.00  0.00    -0.052 A 
ATOM      7  N   UNL     1      -0.979  19.750 -19.563  0.00  0.00    -0.360 N 
ATOM      8  C   UNL     1      -2.186  19.133 -19.372  0.00  0.00    +0.006 A 
ATOM      9  C   UNL     1      -1.955  17.821 -18.996  0.00  0.00    -0.012 A 
ATOM     10  H   UNL     1      -0.863  20.685 -19.849  0.00  0.00    +0.000 HD
ENDROOT
BRANCH   9  11
ATOM     11  C   UNL     1      -2.996  16.805 -18.646  0.00  0.00    +0.072 C 
BRANCH  11  12
ATOM     12  C   UNL     1      -4.422  17.312 -18.748  0.00  0.00    +0.312 C 
ATOM     13  O   UNL     1      -5.109  17.365 -19.758  0.00  0.00    -0.250 OA
BRANCH  12  14
ATOM     14  O   UNL     1      -4.818  17.762 -17.514  0.00  0.00    -0.465 OA
BRANCH  14  15
ATOM     15  C   UNL     1      -4.555  16.892 -16.403  0.00  0.00    +0.090 C 
ATOM     16  C   UNL     1      -4.128  17.676 -15.179  0.00  0.00    -0.031 C 
ENDBRANCH  14  15
ENDBRANCH  12  14
ENDBRANCH  11  12
ENDBRANCH   9  11
TORSDOF 4
ENDMDL
