MODEL 1
REMARK VINA RESULT:    -9.375      0.000      0.000
REMARK INTER + INTRA:         -12.553
REMARK INTER:                 -12.116
REMARK INTRA:                  -0.438
REMARK UNBOUND:                -0.438
REMARK  Name = 21.sdf
REMARK  5 active torsions:
REMARK  status: ('A' for Active; 'I' for Inactive)
REMARK    1  A    between atoms: C_9  and  C_10
REMARK    2  A    between atoms: C_10  and  O_11
REMARK    3  A    between atoms: O_11  and  C_12
REMARK    4  A    between atoms: C_12  and  C_13
REMARK    5  A    between atoms: C_13  and  C_14
REMARK                            x       y       z     vdW  Elec       q    Type
REMARK                         _______ _______ _______ _____ _____    ______ ____
ROOT
ATOM      1  C   UNL     1      -2.699  17.099 -17.997  0.00  0.00    +0.075 C 
ENDROOT
BRANCH   1  10
ATOM      2  C   UNL     1      -7.148  18.547 -18.666  0.00  0.00    -0.061 A 
ATOM      3  C   UNL     1      -7.760  18.958 -17.484  0.00  0.00    -0.060 A 
ATOM      4  C   UNL     1      -7.097  18.837 -16.259  0.00  0.00    -0.038 A 
ATOM      5  C   UNL     1      -5.792  18.329 -16.266  0.00  0.00    +0.047 A 
ATOM      6  C   UNL     1      -5.136  17.938 -17.434  0.00  0.00    +0.005 A 
ATOM      7  C   UNL     1      -5.848  18.020 -18.649  0.00  0.00    -0.052 A 
ATOM      8  N   UNL     1      -4.922  18.102 -15.226  0.00  0.00    -0.360 N 
ATOM      9  C   UNL     1      -3.731  17.625 -15.698  0.00  0.00    +0.008 A 
ATOM     10  C   UNL     1      -3.804  17.534 -17.077  0.00  0.00    +0.003 A 
ATOM     11  H   UNL     1      -5.126  18.260 -14.277  0.00  0.00    +0.000 HD
ENDBRANCH   1  10
BRANCH   1  12
ATOM     12  O   UNL     1      -2.340  18.156 -18.898  0.00  0.00    -0.367 OA
BRANCH  12  13
ATOM     13  C   UNL     1      -1.247  17.822 -19.738  0.00  0.00    +0.111 C 
BRANCH  13  14
ATOM     14  C   UNL     1       0.021  18.595 -19.381  0.00  0.00    +0.189 C 
ATOM     15  O   UNL     1       0.033  19.832 -19.363  0.00  0.00    -0.290 OA
BRANCH  14  16
ATOM     16  C   UNL     1       1.245  17.857 -18.949  0.00  0.00    +0.020 A 
ATOM     17  C   UNL     1       2.534  18.295 -19.270  0.00  0.00    -0.050 A 
ATOM     18  C   UNL     1       3.648  17.528 -18.914  0.00  0.00    -0.047 A 
ATOM     19  C   UNL     1       3.474  16.322 -18.237  0.00  0.00    +0.018 A 
ATOM     20  C   UNL     1       2.198  15.885 -17.888  0.00  0.00    -0.047 A 
ATOM     21  C   UNL     1       1.086  16.652 -18.245  0.00  0.00    -0.050 A 
ATOM     22 BR   UNL     1       4.975  15.249 -17.830  0.00  0.00    -0.050 Br
ENDBRANCH  14  16
ENDBRANCH  13  14
ENDBRANCH  12  13
ENDBRANCH   1  12
TORSDOF 5
ENDMDL
