MODEL 1
REMARK VINA RESULT:    -8.448      0.000      0.000
REMARK INTER + INTRA:         -12.967
REMARK INTER:                 -11.906
REMARK INTRA:                  -1.061
REMARK UNBOUND:                -1.061
REMARK  Name = 23c.sdf
REMARK  9 active torsions:
REMARK  status: ('A' for Active; 'I' for Inactive)
REMARK    1  A    between atoms: N_7  and  C_12
REMARK    2  A    between atoms: C_9  and  C_10
REMARK    3  A    between atoms: N_11  and  N_19
REMARK    4  A    between atoms: C_12  and  C_13
REMARK    5  A    between atoms: C_20  and  C_22
REMARK    6  A    between atoms: C_24  and  O_30
REMARK    7  A    between atoms: C_25  and  O_29
REMARK    8  A    between atoms: O_29  and  C_32
REMARK    9  A    between atoms: O_30  and  C_31
REMARK                            x       y       z     vdW  Elec       q    Type
REMARK                         _______ _______ _______ _____ _____    ______ ____
ROOT
ATOM      1  C   UNL     1       5.282  18.664 -19.139  0.00  0.00    -0.061 A 
ATOM      2  C   UNL     1       6.500  17.999 -19.185  0.00  0.00    -0.060 A 
ATOM      3  C   UNL     1       6.621  16.687 -18.715  0.00  0.00    -0.038 A 
ATOM      4  C   UNL     1       5.477  16.053 -18.201  0.00  0.00    +0.050 A 
ATOM      5  C   UNL     1       4.229  16.690 -18.185  0.00  0.00    +0.009 A 
ATOM      6  C   UNL     1       4.141  18.021 -18.651  0.00  0.00    -0.052 A 
ATOM      7  N   UNL     1       5.299  14.804 -17.635  0.00  0.00    -0.342 N 
ATOM      8  C   UNL     1       3.972  14.616 -17.335  0.00  0.00    +0.015 A 
ATOM      9  C   UNL     1       3.273  15.759 -17.669  0.00  0.00    +0.020 A 
ENDROOT
BRANCH   9  10
ATOM     10  C   UNL     1       1.848  15.958 -17.518  0.00  0.00    +0.055 C 
ATOM     11  N   UNL     1       1.107  16.123 -18.565  0.00  0.00    -0.187 NA
BRANCH  11  12
ATOM     12  N   UNL     1      -0.230  16.310 -18.330  0.00  0.00    -0.203 N 
ATOM     13  C   UNL     1      -0.881  17.389 -18.913  0.00  0.00    +0.263 C 
ATOM     14  O   UNL     1      -0.359  18.211 -19.662  0.00  0.00    -0.268 OA
ATOM     15  H   UNL     1      -0.725  15.685 -17.752  0.00  0.00    +0.000 HD
BRANCH  13  16
ATOM     16  C   UNL     1      -2.340  17.501 -18.626  0.00  0.00    +0.042 A 
ATOM     17  C   UNL     1      -2.850  17.434 -17.323  0.00  0.00    -0.004 A 
ATOM     18  C   UNL     1      -4.233  17.511 -17.105  0.00  0.00    +0.162 A 
ATOM     19  C   UNL     1      -5.110  17.681 -18.198  0.00  0.00    +0.162 A 
ATOM     20  C   UNL     1      -4.587  17.791 -19.490  0.00  0.00    -0.016 A 
ATOM     21  C   UNL     1      -3.210  17.699 -19.702  0.00  0.00    -0.046 A 
BRANCH  19  22
ATOM     22  O   UNL     1      -6.448  17.727 -17.896  0.00  0.00    -0.491 OA
ATOM     23  C   UNL     1      -7.135  18.951 -18.117  0.00  0.00    +0.079 C 
ENDBRANCH  19  22
BRANCH  18  24
ATOM     24  O   UNL     1      -4.826  17.427 -15.868  0.00  0.00    -0.491 OA
ATOM     25  C   UNL     1      -4.077  17.848 -14.738  0.00  0.00    +0.079 C 
ENDBRANCH  18  24
ENDBRANCH  13  16
ENDBRANCH  11  12
ENDBRANCH   9  10
BRANCH   7  26
ATOM     26  C   UNL     1       6.352  13.848 -17.297  0.00  0.00    +0.048 C 
BRANCH  26  27
ATOM     27  C   UNL     1       6.211  12.566 -18.081  0.00  0.00    -0.028 A 
ATOM     28  C   UNL     1       6.467  12.540 -19.459  0.00  0.00    -0.055 A 
ATOM     29  C   UNL     1       6.227  11.383 -20.204  0.00  0.00    -0.043 A 
ATOM     30  C   UNL     1       5.744  10.241 -19.571  0.00  0.00    +0.041 A 
ATOM     31  C   UNL     1       5.534  10.233 -18.194  0.00  0.00    -0.043 A 
ATOM     32  C   UNL     1       5.769  11.393 -17.450  0.00  0.00    -0.055 A 
ATOM     33 CL   UNL     1       5.384   8.838 -20.501  0.00  0.00    -0.084 Cl
ENDBRANCH  26  27
ENDBRANCH   7  26
TORSDOF 7
ENDMDL
