MODEL 1
REMARK VINA RESULT:    -9.816      0.000      0.000
REMARK INTER + INTRA:         -13.236
REMARK INTER:                 -12.972
REMARK INTRA:                  -0.264
REMARK UNBOUND:                -0.264
REMARK  Name = 24a.sdf
REMARK  6 active torsions:
REMARK  status: ('A' for Active; 'I' for Inactive)
REMARK    1  A    between atoms: N_7  and  C_10
REMARK    2  A    between atoms: C_9  and  C_18
REMARK    3  A    between atoms: C_10  and  C_11
REMARK    4  A    between atoms: N_19  and  N_20
REMARK    5  A    between atoms: C_21  and  C_23
REMARK    6  A    between atoms: C_26  and  O_29
REMARK                            x       y       z     vdW  Elec       q    Type
REMARK                         _______ _______ _______ _____ _____    ______ ____
ROOT
ATOM      1  C   UNL     1       6.015  15.288 -18.790  0.00  0.00    -0.061 A 
ATOM      2  C   UNL     1       5.873  16.344 -19.677  0.00  0.00    -0.060 A 
ATOM      3  C   UNL     1       4.817  17.264 -19.551  0.00  0.00    -0.038 A 
ATOM      4  C   UNL     1       3.870  17.066 -18.519  0.00  0.00    +0.050 A 
ATOM      5  C   UNL     1       4.039  16.040 -17.579  0.00  0.00    +0.009 A 
ATOM      6  C   UNL     1       5.125  15.144 -17.724  0.00  0.00    -0.052 A 
ATOM      7  N   UNL     1       2.687  17.717 -18.210  0.00  0.00    -0.342 N 
ATOM      8  C   UNL     1       2.175  17.186 -17.045  0.00  0.00    +0.015 A 
ATOM      9  C   UNL     1       2.995  16.165 -16.609  0.00  0.00    +0.020 A 
ENDROOT
BRANCH   9  10
ATOM     10  C   UNL     1       2.818  15.381 -15.401  0.00  0.00    +0.055 C 
ATOM     11  N   UNL     1       2.547  14.118 -15.479  0.00  0.00    -0.187 NA
BRANCH  11  12
ATOM     12  N   UNL     1       2.372  13.466 -14.288  0.00  0.00    -0.203 N 
ATOM     13  C   UNL     1       2.629  12.103 -14.206  0.00  0.00    +0.263 C 
ATOM     14  O   UNL     1       3.024  11.406 -15.143  0.00  0.00    -0.268 OA
ATOM     15  H   UNL     1       2.066  13.961 -13.494  0.00  0.00    +0.000 HD
BRANCH  13  16
ATOM     16  C   UNL     1       2.443  11.467 -12.872  0.00  0.00    +0.039 A 
ATOM     17  C   UNL     1       2.212  12.214 -11.708  0.00  0.00    -0.046 A 
ATOM     18  C   UNL     1       2.072  11.569 -10.473  0.00  0.00    -0.019 A 
ATOM     19  C   UNL     1       2.151  10.180 -10.410  0.00  0.00    +0.117 A 
ATOM     20  C   UNL     1       2.337   9.423 -11.559  0.00  0.00    -0.019 A 
ATOM     21  C   UNL     1       2.481  10.067 -12.791  0.00  0.00    -0.046 A 
BRANCH  19  22
ATOM     22  O   UNL     1       2.048   9.515  -9.224  0.00  0.00    -0.507 OA
ATOM     23  H   UNL     1       2.071   8.579  -9.210  0.00  0.00    +0.000 HD
ENDBRANCH  19  22
ENDBRANCH  13  16
ENDBRANCH  11  12
ENDBRANCH   9  10
BRANCH   7  24
ATOM     24  C   UNL     1       1.964  18.707 -19.016  0.00  0.00    +0.048 C 
BRANCH  24  25
ATOM     25  C   UNL     1       0.501  18.365 -19.185  0.00  0.00    -0.028 A 
ATOM     26  C   UNL     1      -0.437  19.373 -19.451  0.00  0.00    -0.056 A 
ATOM     27  C   UNL     1      -1.805  19.103 -19.388  0.00  0.00    -0.047 A 
ATOM     28  C   UNL     1      -2.243  17.813 -19.100  0.00  0.00    +0.018 A 
ATOM     29  C   UNL     1      -1.327  16.773 -18.959  0.00  0.00    -0.047 A 
ATOM     30  C   UNL     1       0.043  17.049 -19.005  0.00  0.00    -0.056 A 
ATOM     31 BR   UNL     1      -4.083  17.490 -18.814  0.00  0.00    -0.050 Br
ENDBRANCH  24  25
ENDBRANCH   7  24
TORSDOF 6
ENDMDL
