MODEL 1
REMARK VINA RESULT:    -9.712      0.000      0.000
REMARK INTER + INTRA:         -13.732
REMARK INTER:                 -13.118
REMARK INTRA:                  -0.613
REMARK UNBOUND:                -0.613
REMARK  Name = 25c.sdf
REMARK  7 active torsions:
REMARK  status: ('A' for Active; 'I' for Inactive)
REMARK    1  A    between atoms: N_7  and  C_10
REMARK    2  A    between atoms: C_9  and  C_18
REMARK    3  A    between atoms: C_10  and  C_11
REMARK    4  A    between atoms: N_19  and  N_20
REMARK    5  A    between atoms: C_21  and  C_23
REMARK    6  A    between atoms: C_25  and  O_29
REMARK    7  A    between atoms: C_27  and  O_30
REMARK                            x       y       z     vdW  Elec       q    Type
REMARK                         _______ _______ _______ _____ _____    ______ ____
ROOT
ATOM      1  C   UNL     1       4.627  18.025 -19.393  0.00  0.00    -0.061 A 
ATOM      2  C   UNL     1       5.627  17.379 -18.674  0.00  0.00    -0.060 A 
ATOM      3  C   UNL     1       5.325  16.329 -17.795  0.00  0.00    -0.038 A 
ATOM      4  C   UNL     1       3.978  15.958 -17.626  0.00  0.00    +0.050 A 
ATOM      5  C   UNL     1       2.962  16.556 -18.393  0.00  0.00    +0.009 A 
ATOM      6  C   UNL     1       3.300  17.605 -19.280  0.00  0.00    -0.052 A 
ATOM      7  N   UNL     1       3.360  15.051 -16.779  0.00  0.00    -0.342 N 
ATOM      8  C   UNL     1       2.015  15.002 -17.067  0.00  0.00    +0.015 A 
ATOM      9  C   UNL     1       1.734  15.901 -18.078  0.00  0.00    +0.020 A 
ENDROOT
BRANCH   9  10
ATOM     10  C   UNL     1       0.436  16.126 -18.682  0.00  0.00    +0.055 C 
ATOM     11  N   UNL     1      -0.313  17.091 -18.260  0.00  0.00    -0.187 NA
BRANCH  11  12
ATOM     12  N   UNL     1      -1.532  17.236 -18.875  0.00  0.00    -0.203 N 
ATOM     13  C   UNL     1      -2.689  17.323 -18.103  0.00  0.00    +0.263 C 
ATOM     14  O   UNL     1      -2.738  17.255 -16.878  0.00  0.00    -0.268 OA
ATOM     15  H   UNL     1      -1.589  17.278 -19.857  0.00  0.00    +0.000 HD
BRANCH  13  16
ATOM     16  C   UNL     1      -3.967  17.504 -18.852  0.00  0.00    +0.045 A 
ATOM     17  C   UNL     1      -3.980  17.414 -20.255  0.00  0.00    -0.008 A 
ATOM     18  C   UNL     1      -5.193  17.533 -20.938  0.00  0.00    +0.121 A 
ATOM     19  C   UNL     1      -6.384  17.737 -20.253  0.00  0.00    +0.021 A 
ATOM     20  C   UNL     1      -6.367  17.816 -18.868  0.00  0.00    +0.121 A 
ATOM     21  C   UNL     1      -5.171  17.693 -18.167  0.00  0.00    -0.008 A 
BRANCH  18  22
ATOM     22  O   UNL     1      -5.265  17.445 -22.298  0.00  0.00    -0.507 OA
ATOM     23  H   UNL     1      -5.759  16.757 -22.698  0.00  0.00    +0.000 HD
ENDBRANCH  18  22
BRANCH  20  24
ATOM     24  O   UNL     1      -7.490  17.999 -18.132  0.00  0.00    -0.507 OA
ATOM     25  H   UNL     1      -7.951  18.814 -18.176  0.00  0.00    +0.000 HD
ENDBRANCH  20  24
ENDBRANCH  13  16
ENDBRANCH  11  12
ENDBRANCH   9  10
BRANCH   7  26
ATOM     26  C   UNL     1       3.955  14.351 -15.633  0.00  0.00    +0.048 C 
BRANCH  26  27
ATOM     27  C   UNL     1       3.095  13.207 -15.150  0.00  0.00    -0.028 A 
ATOM     28  C   UNL     1       3.222  11.935 -15.726  0.00  0.00    -0.055 A 
ATOM     29  C   UNL     1       2.291  10.933 -15.448  0.00  0.00    -0.043 A 
ATOM     30  C   UNL     1       1.251  11.184 -14.557  0.00  0.00    +0.041 A 
ATOM     31  C   UNL     1       1.180  12.401 -13.884  0.00  0.00    -0.043 A 
ATOM     32  C   UNL     1       2.102  13.411 -14.178  0.00  0.00    -0.055 A 
ATOM     33 CL   UNL     1       0.016  10.007 -14.334  0.00  0.00    -0.084 Cl
ENDBRANCH  26  27
ENDBRANCH   7  26
TORSDOF 7
ENDMDL
