MODEL 1
REMARK VINA RESULT:    -9.903      0.000      0.000
REMARK INTER + INTRA:         -13.609
REMARK INTER:                 -13.377
REMARK INTRA:                  -0.232
REMARK UNBOUND:                -0.232
REMARK  Name = 26a.sdf
REMARK  7 active torsions:
REMARK  status: ('A' for Active; 'I' for Inactive)
REMARK    1  A    between atoms: N_7  and  C_10
REMARK    2  A    between atoms: C_9  and  C_18
REMARK    3  A    between atoms: C_10  and  C_11
REMARK    4  A    between atoms: N_19  and  N_20
REMARK    5  A    between atoms: C_21  and  C_23
REMARK    6  A    between atoms: C_26  and  O_29
REMARK    7  A    between atoms: C_28  and  O_30
REMARK                            x       y       z     vdW  Elec       q    Type
REMARK                         _______ _______ _______ _____ _____    ______ ____
ROOT
ATOM      1  C   UNL     1       6.242  15.627 -18.760  0.00  0.00    -0.061 A 
ATOM      2  C   UNL     1       6.070  16.777 -19.521  0.00  0.00    -0.060 A 
ATOM      3  C   UNL     1       4.905  17.543 -19.415  0.00  0.00    -0.038 A 
ATOM      4  C   UNL     1       3.912  17.127 -18.512  0.00  0.00    +0.050 A 
ATOM      5  C   UNL     1       4.085  15.999 -17.700  0.00  0.00    +0.009 A 
ATOM      6  C   UNL     1       5.264  15.234 -17.842  0.00  0.00    -0.052 A 
ATOM      7  N   UNL     1       2.658  17.637 -18.231  0.00  0.00    -0.342 N 
ATOM      8  C   UNL     1       2.082  16.917 -17.215  0.00  0.00    +0.015 A 
ATOM      9  C   UNL     1       2.935  15.894 -16.856  0.00  0.00    +0.020 A 
ENDROOT
BRANCH   9  10
ATOM     10  C   UNL     1       2.686  14.915 -15.819  0.00  0.00    +0.055 C 
ATOM     11  N   UNL     1       2.431  13.689 -16.144  0.00  0.00    -0.187 NA
BRANCH  11  12
ATOM     12  N   UNL     1       2.199  12.852 -15.095  0.00  0.00    -0.203 N 
ATOM     13  C   UNL     1       2.567  11.521 -15.150  0.00  0.00    +0.267 C 
ATOM     14  O   UNL     1       3.130  10.984 -16.106  0.00  0.00    -0.268 OA
ATOM     15  H   UNL     1       1.762  13.200 -14.284  0.00  0.00    +0.000 HD
BRANCH  13  16
ATOM     16  C   UNL     1       2.234  10.698 -13.939  0.00  0.00    +0.080 A 
ATOM     17  C   UNL     1       1.485   9.526 -14.141  0.00  0.00    -0.043 A 
ATOM     18  C   UNL     1       1.118   8.710 -13.069  0.00  0.00    -0.019 A 
ATOM     19  C   UNL     1       1.505   9.066 -11.782  0.00  0.00    +0.120 A 
ATOM     20  C   UNL     1       2.254  10.214 -11.553  0.00  0.00    +0.022 A 
ATOM     21  C   UNL     1       2.617  11.030 -12.629  0.00  0.00    +0.132 A 
BRANCH  19  22
ATOM     22  O   UNL     1       1.163   8.310 -10.700  0.00  0.00    -0.507 OA
ATOM     23  H   UNL     1       1.518   7.449 -10.598  0.00  0.00    +0.000 HD
ENDBRANCH  19  22
BRANCH  21  24
ATOM     24  O   UNL     1       3.350  12.162 -12.369  0.00  0.00    -0.506 OA
ATOM     25  H   UNL     1       3.045  12.783 -11.736  0.00  0.00    +0.000 HD
ENDBRANCH  21  24
ENDBRANCH  13  16
ENDBRANCH  11  12
ENDBRANCH   9  10
BRANCH   7  26
ATOM     26  C   UNL     1       1.967  18.698 -18.960  0.00  0.00    +0.048 C 
BRANCH  26  27
ATOM     27  C   UNL     1       0.499  18.396 -19.129  0.00  0.00    -0.028 A 
ATOM     28  C   UNL     1      -0.414  19.428 -19.389  0.00  0.00    -0.056 A 
ATOM     29  C   UNL     1      -1.785  19.170 -19.430  0.00  0.00    -0.047 A 
ATOM     30  C   UNL     1      -2.249  17.874 -19.224  0.00  0.00    +0.018 A 
ATOM     31  C   UNL     1      -1.354  16.826 -19.018  0.00  0.00    -0.047 A 
ATOM     32  C   UNL     1       0.017  17.088 -18.972  0.00  0.00    -0.056 A 
ATOM     33 BR   UNL     1      -4.110  17.542 -19.186  0.00  0.00    -0.050 Br
ENDBRANCH  26  27
ENDBRANCH   7  26
TORSDOF 7
ENDMDL
