MODEL 1
REMARK VINA RESULT:    -9.806      0.000      0.000
REMARK INTER + INTRA:         -13.194
REMARK INTER:                 -12.958
REMARK INTRA:                  -0.235
REMARK UNBOUND:                -0.235
REMARK  Name = 27c.sdf
REMARK  6 active torsions:
REMARK  status: ('A' for Active; 'I' for Inactive)
REMARK    1  A    between atoms: N_7  and  C_10
REMARK    2  A    between atoms: C_9  and  C_18
REMARK    3  A    between atoms: C_10  and  C_11
REMARK    4  A    between atoms: N_19  and  N_20
REMARK    5  A    between atoms: C_21  and  C_23
REMARK    6  A    between atoms: C_26  and  N_29
REMARK                            x       y       z     vdW  Elec       q    Type
REMARK                         _______ _______ _______ _____ _____    ______ ____
ROOT
ATOM      1  C   UNL     1       6.025  14.866 -18.594  0.00  0.00    -0.061 A 
ATOM      2  C   UNL     1       5.947  15.903 -19.515  0.00  0.00    -0.060 A 
ATOM      3  C   UNL     1       4.926  16.856 -19.443  0.00  0.00    -0.038 A 
ATOM      4  C   UNL     1       3.976  16.743 -18.412  0.00  0.00    +0.050 A 
ATOM      5  C   UNL     1       4.069  15.739 -17.440  0.00  0.00    +0.009 A 
ATOM      6  C   UNL     1       5.102  14.782 -17.547  0.00  0.00    -0.052 A 
ATOM      7  N   UNL     1       2.841  17.479 -18.123  0.00  0.00    -0.342 N 
ATOM      8  C   UNL     1       2.275  17.020 -16.959  0.00  0.00    +0.015 A 
ATOM      9  C   UNL     1       3.015  15.944 -16.500  0.00  0.00    +0.020 A 
ENDROOT
BRANCH   9  10
ATOM     10  C   UNL     1       2.760  15.192 -15.289  0.00  0.00    +0.055 C 
ATOM     11  N   UNL     1       2.597  13.911 -15.345  0.00  0.00    -0.187 NA
BRANCH  11  12
ATOM     12  N   UNL     1       2.350  13.281 -14.153  0.00  0.00    -0.203 N 
ATOM     13  C   UNL     1       2.646  11.930 -14.020  0.00  0.00    +0.263 C 
ATOM     14  O   UNL     1       3.136  11.224 -14.897  0.00  0.00    -0.268 OA
ATOM     15  H   UNL     1       1.967  13.781 -13.397  0.00  0.00    +0.000 HD
BRANCH  13  16
ATOM     16  C   UNL     1       2.374  11.332 -12.680  0.00  0.00    +0.038 A 
ATOM     17  C   UNL     1       2.221  12.105 -11.525  0.00  0.00    -0.048 A 
ATOM     18  C   UNL     1       1.973  11.483 -10.293  0.00  0.00    -0.040 A 
ATOM     19  C   UNL     1       1.909  10.090 -10.191  0.00  0.00    +0.025 A 
ATOM     20  C   UNL     1       1.973   9.331 -11.361  0.00  0.00    -0.040 A 
ATOM     21  C   UNL     1       2.222   9.942 -12.596  0.00  0.00    -0.048 A 
BRANCH  19  22
ATOM     22  N   UNL     1       1.550   9.488  -8.981  0.00  0.00    -0.358 N 
ATOM     23  H   UNL     1       2.244   9.247  -8.325  0.00  0.00    +0.000 HD
ATOM     24  H   UNL     1       0.603   9.306  -8.784  0.00  0.00    +0.000 HD
ENDBRANCH  19  22
ENDBRANCH  13  16
ENDBRANCH  11  12
ENDBRANCH   9  10
BRANCH   7  25
ATOM     25  C   UNL     1       2.235  18.511 -18.966  0.00  0.00    +0.048 C 
BRANCH  25  26
ATOM     26  C   UNL     1       0.755  18.282 -19.151  0.00  0.00    -0.028 A 
ATOM     27  C   UNL     1      -0.105  19.359 -19.416  0.00  0.00    -0.055 A 
ATOM     28  C   UNL     1      -1.489  19.173 -19.440  0.00  0.00    -0.043 A 
ATOM     29  C   UNL     1      -2.020  17.905 -19.222  0.00  0.00    +0.041 A 
ATOM     30  C   UNL     1      -1.179  16.812 -19.032  0.00  0.00    -0.043 A 
ATOM     31  C   UNL     1       0.205  17.000 -19.000  0.00  0.00    -0.055 A 
ATOM     32 CL   UNL     1      -3.727  17.696 -19.152  0.00  0.00    -0.084 Cl
ENDBRANCH  25  26
ENDBRANCH   7  25
TORSDOF 6
ENDMDL
