MODEL 1
REMARK VINA RESULT:    -8.976      0.000      0.000
REMARK INTER + INTRA:         -11.085
REMARK INTER:                 -11.075
REMARK INTRA:                  -0.011
REMARK UNBOUND:                -0.011
REMARK  Name = 2a.sdf
REMARK  4 active torsions:
REMARK  status: ('A' for Active; 'I' for Inactive)
REMARK    1  A    between atoms: N_7  and  C_12
REMARK    2  A    between atoms: C_9  and  C_10
REMARK    3  A    between atoms: C_11  and  C_20
REMARK    4  A    between atoms: C_12  and  C_13
REMARK                            x       y       z     vdW  Elec       q    Type
REMARK                         _______ _______ _______ _____ _____    ______ ____
ROOT
ATOM      1  C   UNL     1       6.036  15.637 -18.826  0.00  0.00    -0.061 A 
ATOM      2  C   UNL     1       5.884  16.761 -19.619  0.00  0.00    -0.060 A 
ATOM      3  C   UNL     1       4.791  17.622 -19.448  0.00  0.00    -0.038 A 
ATOM      4  C   UNL     1       3.783  17.286 -18.523  0.00  0.00    +0.050 A 
ATOM      5  C   UNL     1       3.953  16.179 -17.673  0.00  0.00    +0.007 A 
ATOM      6  C   UNL     1       5.102  15.362 -17.826  0.00  0.00    -0.052 A 
ATOM      7  N   UNL     1       2.547  17.846 -18.226  0.00  0.00    -0.342 N 
ATOM      8  C   UNL     1       1.997  17.176 -17.146  0.00  0.00    +0.013 A 
ATOM      9  C   UNL     1       2.849  16.165 -16.768  0.00  0.00    +0.000 A 
ENDROOT
BRANCH   9  10
ATOM     10  C   UNL     1       2.682  15.259 -15.668  0.00  0.00    -0.046 C 
ATOM     11  C   UNL     1       2.575  13.926 -15.750  0.00  0.00    +0.023 C 
BRANCH  11  12
ATOM     12  C   UNL     1       2.405  12.962 -14.641  0.00  0.00    +0.330 C 
ATOM     13  O   UNL     1       2.930  11.734 -14.834  0.00  0.00    -0.478 OA
ATOM     14  O   UNL     1       1.858  13.282 -13.611  0.00  0.00    -0.246 OA
ENDBRANCH  11  12
ENDBRANCH   9  10
BRANCH   7  15
ATOM     15  C   UNL     1       1.780  18.863 -18.973  0.00  0.00    +0.048 C 
BRANCH  15  16
ATOM     16  C   UNL     1       0.335  18.491 -19.214  0.00  0.00    -0.028 A 
ATOM     17  C   UNL     1      -0.618  19.486 -19.480  0.00  0.00    -0.056 A 
ATOM     18  C   UNL     1      -1.983  19.196 -19.413  0.00  0.00    -0.047 A 
ATOM     19  C   UNL     1      -2.398  17.893 -19.148  0.00  0.00    +0.018 A 
ATOM     20  C   UNL     1      -1.466  16.864 -19.030  0.00  0.00    -0.047 A 
ATOM     21  C   UNL     1      -0.100  17.161 -19.066  0.00  0.00    -0.056 A 
ATOM     22 BR   UNL     1      -4.227  17.536 -18.828  0.00  0.00    -0.050 Br
ENDBRANCH  15  16
ENDBRANCH   7  15
TORSDOF 4
ENDMDL
