MODEL 1
REMARK VINA RESULT:    -8.746      0.000      0.000
REMARK INTER + INTRA:         -10.675
REMARK INTER:                 -10.536
REMARK INTRA:                  -0.139
REMARK UNBOUND:                -0.139
REMARK  Name = 3.sdf
REMARK  4 active torsions:
REMARK  status: ('A' for Active; 'I' for Inactive)
REMARK    1  A    between atoms: CG_9  and  CB_10
REMARK    2  A    between atoms: CB_10  and  CA_11
REMARK    3  A    between atoms: CA_11  and  C_12
REMARK    4  A    between atoms: CA_11  and  N_15
REMARK                            x       y       z     vdW  Elec       q    Type
REMARK                         _______ _______ _______ _____ _____    ______ ____
ROOT
ATOM      1  CZ3 TRP A   1       1.603  16.745 -18.673  0.00  0.00    -0.061 A 
ATOM      2  CH2 TRP A   1       2.150  17.981 -19.010  0.00  0.00    -0.060 A 
ATOM      3  CZ2 TRP A   1       1.330  19.063 -19.337  0.00  0.00    -0.038 A 
ATOM      4  CE2 TRP A   1      -0.055  18.863 -19.298  0.00  0.00    +0.047 A 
ATOM      5  CD2 TRP A   1      -0.639  17.648 -18.936  0.00  0.00    +0.003 A 
ATOM      6  CE3 TRP A   1       0.214  16.566 -18.630  0.00  0.00    -0.052 A 
ATOM      7  NE1 TRP A   1      -1.079  19.736 -19.571  0.00  0.00    -0.360 N 
ATOM      8  CD1 TRP A   1      -2.287  19.136 -19.348  0.00  0.00    +0.006 A 
ATOM      9  CG  TRP A   1      -2.064  17.834 -18.942  0.00  0.00    -0.020 A 
ATOM     10  HE1 TRP A   1      -0.959  20.662 -19.884  0.00  0.00    +0.000 HD
ENDROOT
BRANCH   9  11
ATOM     11  CB  TRP A   1      -3.095  16.824 -18.522  0.00  0.00    -0.000 C 
BRANCH  11  12
ATOM     12  CA  TRP A   1      -4.413  17.406 -17.995  0.00  0.00    +0.107 C 
BRANCH  12  13
ATOM     13  N   TRP A   1      -5.031  16.511 -16.980  0.00  0.00    -0.318 N 
ATOM     14  H1  TRP A   1      -5.774  15.965 -17.415  0.00  0.00    +0.000 HD
ATOM     15  H2  TRP A   1      -5.422  17.074 -16.223  0.00  0.00    +0.000 HD
ATOM     16  H3  TRP A   1      -4.322  15.882 -16.604  0.00  0.00    +0.000 HD
ENDBRANCH  12  13
BRANCH  12  17
ATOM     17  C   TRP A   1      -5.426  17.687 -19.115  0.00  0.00    +0.322 C 
ATOM     18  O   TRP A   1      -6.482  18.445 -18.729  0.00  0.00    -0.480 OA
ATOM     19  OXT TRP A   1      -5.262  17.354 -20.281  0.00  0.00    -0.249 OA
ENDBRANCH  12  17
ENDBRANCH  11  12
ENDBRANCH   9  11
TORSDOF 4
ENDMDL
