MODEL 1
REMARK VINA RESULT:    -7.332      0.000      0.000
REMARK INTER + INTRA:          -8.001
REMARK INTER:                  -7.975
REMARK INTRA:                  -0.026
REMARK UNBOUND:                -0.026
REMARK  Name = 4.sdf
REMARK  2 active torsions:
REMARK  status: ('A' for Active; 'I' for Inactive)
REMARK    1  A    between atoms: C_9  and  C_10
REMARK    2  A    between atoms: C_10  and  O_11
REMARK                            x       y       z     vdW  Elec       q    Type
REMARK                         _______ _______ _______ _____ _____    ______ ____
ROOT
ATOM      1  C   UNL     1       0.763  17.340 -19.027  0.00  0.00    -0.061 A 
ATOM      2  C   UNL     1       0.941  18.643 -19.485  0.00  0.00    -0.060 A 
ATOM      3  C   UNL     1      -0.150  19.503 -19.640  0.00  0.00    -0.038 A 
ATOM      4  C   UNL     1      -1.421  19.008 -19.327  0.00  0.00    +0.047 A 
ATOM      5  C   UNL     1      -1.636  17.702 -18.876  0.00  0.00    +0.005 A 
ATOM      6  C   UNL     1      -0.516  16.859 -18.719  0.00  0.00    -0.052 A 
ATOM      7  N   UNL     1      -2.648  19.625 -19.388  0.00  0.00    -0.360 N 
ATOM      8  C   UNL     1      -3.631  18.755 -19.008  0.00  0.00    +0.008 A 
ATOM      9  C   UNL     1      -3.050  17.542 -18.687  0.00  0.00    +0.003 A 
ATOM     10  H   UNL     1      -2.796  20.557 -19.665  0.00  0.00    +0.000 HD
ENDROOT
BRANCH   9  11
ATOM     11  C   UNL     1      -3.776  16.311 -18.262  0.00  0.00    +0.071 C 
BRANCH  11  12
ATOM     12  O   UNL     1      -4.522  16.521 -17.067  0.00  0.00    -0.390 OA
ATOM     13  H   UNL     1      -5.327  15.981 -17.089  0.00  0.00    +0.000 HD
ENDBRANCH  11  12
ENDBRANCH   9  11
TORSDOF 2
ENDMDL
