MODEL 1
REMARK VINA RESULT:   -10.029      0.000      0.000
REMARK INTER + INTRA:         -12.413
REMARK INTER:                 -12.081
REMARK INTRA:                  -0.332
REMARK UNBOUND:                -0.332
REMARK  Name = 4a.pdb
REMARK  4 active torsions:
REMARK  status: ('A' for Active; 'I' for Inactive)
REMARK    1  A    between atoms: N_7  and  C_11
REMARK    2  A    between atoms: C_9  and  C_10
REMARK    3  A    between atoms: C_10  and  O_18
REMARK    4  A    between atoms: C_11  and  C_12
REMARK                            x       y       z     vdW  Elec       q    Type
REMARK                         _______ _______ _______ _____ _____    ______ ____
ROOT
ATOM      1  C   UNL     1      -7.570  19.081 -16.949  0.00  0.00    -0.061 A 
ATOM      2  C   UNL     1      -7.316  18.904 -18.303  0.00  0.00    -0.060 A 
ATOM      3  C   UNL     1      -6.090  18.402 -18.743  0.00  0.00    -0.038 A 
ATOM      4  C   UNL     1      -5.111  18.091 -17.784  0.00  0.00    +0.050 A 
ATOM      5  C   UNL     1      -5.344  18.255 -16.415  0.00  0.00    +0.005 A 
ATOM      6  C   UNL     1      -6.597  18.758 -15.997  0.00  0.00    -0.052 A 
ATOM      7  N   UNL     1      -3.822  17.611 -17.919  0.00  0.00    -0.342 N 
ATOM      8  C   UNL     1      -3.254  17.446 -16.680  0.00  0.00    +0.011 A 
ATOM      9  C   UNL     1      -4.166  17.837 -15.717  0.00  0.00    +0.003 A 
ENDROOT
BRANCH   9  10
ATOM     10  C   UNL     1      -3.953  17.817 -14.242  0.00  0.00    +0.071 C 
BRANCH  10  11
ATOM     11  O   UNL     1      -3.792  19.133 -13.722  0.00  0.00    -0.390 OA
ATOM     12  H   UNL     1      -3.874  19.778 -14.442  0.00  0.00    +0.000 HD
ENDBRANCH  10  11
ENDBRANCH   9  10
BRANCH   7  13
ATOM     13  C   UNL     1      -3.150  17.291 -19.176  0.00  0.00    +0.048 C 
BRANCH  13  14
ATOM     14  C   UNL     1      -1.662  17.527 -19.073  0.00  0.00    -0.028 A 
ATOM     15  C   UNL     1       0.591  16.665 -18.749  0.00  0.00    -0.047 A 
ATOM     16  C   UNL     1       1.114  17.913 -19.080  0.00  0.00    +0.018 A 
ATOM     17  C   UNL     1       0.264  18.977 -19.377  0.00  0.00    -0.047 A 
ATOM     18  C   UNL     1      -1.119  18.785 -19.374  0.00  0.00    -0.056 A 
ATOM     19 BR   UNL     1       2.986  18.155 -19.155  0.00  0.00    -0.050 Br
ATOM     20  C   UNL     1      -0.793  16.477 -18.739  0.00  0.00    -0.056 A 
ENDBRANCH  13  14
ENDBRANCH   7  13
TORSDOF 4
ENDMDL
