MODEL 1
REMARK VINA RESULT:    -8.363      0.000      0.000
REMARK INTER + INTRA:         -11.510
REMARK INTER:                 -10.808
REMARK INTRA:                  -0.702
REMARK UNBOUND:                -0.702
REMARK  Name = 5c.sdf
REMARK  6 active torsions:
REMARK  status: ('A' for Active; 'I' for Inactive)
REMARK    1  A    between atoms: N_7  and  C_12
REMARK    2  A    between atoms: C_9  and  C_10
REMARK    3  A    between atoms: C_11  and  C_20
REMARK    4  A    between atoms: C_12  and  C_13
REMARK    5  A    between atoms: C_20  and  O_21
REMARK    6  A    between atoms: O_21  and  C_23
REMARK                            x       y       z     vdW  Elec       q    Type
REMARK                         _______ _______ _______ _____ _____    ______ ____
ROOT
ATOM      1  C   UNL     1       5.155  17.262 -19.419  0.00  0.00    -0.061 A 
ATOM      2  C   UNL     1       5.900  16.308 -18.737  0.00  0.00    -0.060 A 
ATOM      3  C   UNL     1       5.336  15.565 -17.695  0.00  0.00    -0.038 A 
ATOM      4  C   UNL     1       3.991  15.801 -17.357  0.00  0.00    +0.050 A 
ATOM      5  C   UNL     1       3.209  16.730 -18.057  0.00  0.00    +0.007 A 
ATOM      6  C   UNL     1       3.813  17.474 -19.095  0.00  0.00    -0.052 A 
ATOM      7  N   UNL     1       3.186  15.262 -16.369  0.00  0.00    -0.342 N 
ATOM      8  C   UNL     1       1.914  15.781 -16.467  0.00  0.00    +0.013 A 
ATOM      9  C   UNL     1       1.890  16.685 -17.507  0.00  0.00    +0.000 A 
ENDROOT
BRANCH   9  10
ATOM     10  C   UNL     1       0.757  17.441 -17.958  0.00  0.00    -0.046 C 
ATOM     11  C   UNL     1      -0.276  16.954 -18.666  0.00  0.00    +0.023 C 
BRANCH  11  12
ATOM     12  C   UNL     1      -1.434  17.740 -19.141  0.00  0.00    +0.332 C 
ATOM     13  O   UNL     1      -1.309  18.899 -19.512  0.00  0.00    -0.246 OA
BRANCH  12  14
ATOM     14  O   UNL     1      -2.592  17.039 -19.116  0.00  0.00    -0.465 OA
ATOM     15  C   UNL     1      -3.338  17.208 -17.907  0.00  0.00    +0.082 C 
ENDBRANCH  12  14
ENDBRANCH  11  12
ENDBRANCH   9  10
BRANCH   7  16
ATOM     16  C   UNL     1       3.613  14.335 -15.321  0.00  0.00    +0.048 C 
BRANCH  16  17
ATOM     17  C   UNL     1       2.543  13.312 -15.025  0.00  0.00    -0.028 A 
ATOM     18  C   UNL     1       2.151  12.387 -16.004  0.00  0.00    -0.055 A 
ATOM     19  C   UNL     1       1.057  11.547 -15.788  0.00  0.00    -0.043 A 
ATOM     20  C   UNL     1       0.360  11.614 -14.585  0.00  0.00    +0.041 A 
ATOM     21  C   UNL     1       0.778  12.478 -13.576  0.00  0.00    -0.043 A 
ATOM     22  C   UNL     1       1.868  13.323 -13.793  0.00  0.00    -0.055 A 
ATOM     23 CL   UNL     1      -1.043  10.645 -14.355  0.00  0.00    -0.084 Cl
ENDBRANCH  16  17
ENDBRANCH   7  16
TORSDOF 5
ENDMDL
