MODEL 1
REMARK VINA RESULT:    -8.659      0.000      0.000
REMARK INTER + INTRA:         -11.096
REMARK INTER:                 -10.937
REMARK INTRA:                  -0.159
REMARK UNBOUND:                -0.159
REMARK  Name = 6.sdf
REMARK  6 active torsions:
REMARK  status: ('A' for Active; 'I' for Inactive)
REMARK    1  A    between atoms: C_9  and  C_10
REMARK    2  A    between atoms: C_10  and  C_11
REMARK    3  A    between atoms: C_11  and  C_12
REMARK    4  A    between atoms: C_11  and  N_15
REMARK    5  A    between atoms: C_12  and  O_13
REMARK    6  A    between atoms: O_13  and  C_16
REMARK                            x       y       z     vdW  Elec       q    Type
REMARK                         _______ _______ _______ _____ _____    ______ ____
ROOT
ATOM      1  C   UNL     1       1.754  16.793 -18.690  0.00  0.00    -0.061 A 
ATOM      2  C   UNL     1       2.294  18.030 -19.031  0.00  0.00    -0.060 A 
ATOM      3  C   UNL     1       1.465  19.106 -19.358  0.00  0.00    -0.038 A 
ATOM      4  C   UNL     1       0.082  18.901 -19.309  0.00  0.00    +0.047 A 
ATOM      5  C   UNL     1      -0.494  17.680 -18.948  0.00  0.00    +0.003 A 
ATOM      6  C   UNL     1       0.367  16.603 -18.647  0.00  0.00    -0.052 A 
ATOM      7  N   UNL     1      -0.947  19.773 -19.571  0.00  0.00    -0.360 N 
ATOM      8  C   UNL     1      -2.152  19.165 -19.350  0.00  0.00    +0.006 A 
ATOM      9  C   UNL     1      -1.918  17.861 -18.951  0.00  0.00    -0.020 A 
ATOM     10  H   UNL     1      -0.834  20.702 -19.874  0.00  0.00    +0.000 HD
ENDROOT
BRANCH   9  11
ATOM     11  C   UNL     1      -2.964  16.860 -18.548  0.00  0.00    -0.000 C 
BRANCH  11  12
ATOM     12  C   UNL     1      -4.201  17.468 -17.875  0.00  0.00    +0.107 C 
BRANCH  12  13
ATOM     13  N   UNL     1      -4.792  16.488 -16.919  0.00  0.00    -0.318 N 
ATOM     14  H   UNL     1      -4.619  15.540 -17.253  0.00  0.00    +0.000 HD
ATOM     15  H   UNL     1      -5.797  16.645 -16.848  0.00  0.00    +0.000 HD
ATOM     16  H   UNL     1      -4.364  16.608 -16.001  0.00  0.00    +0.000 HD
ENDBRANCH  12  13
BRANCH  12  17
ATOM     17  C   UNL     1      -5.237  17.836 -18.947  0.00  0.00    +0.324 C 
ATOM     18  O   UNL     1      -5.297  17.310 -20.051  0.00  0.00    -0.249 OA
BRANCH  17  19
ATOM     19  O   UNL     1      -6.065  18.814 -18.486  0.00  0.00    -0.467 OA
ATOM     20  C   UNL     1      -7.445  18.470 -18.353  0.00  0.00    +0.082 C 
ENDBRANCH  17  19
ENDBRANCH  12  17
ENDBRANCH  11  12
ENDBRANCH   9  11
TORSDOF 5
ENDMDL
