MODEL 1
REMARK VINA RESULT:    -7.565      0.000      0.000
REMARK INTER + INTRA:         -10.319
REMARK INTER:                  -9.776
REMARK INTRA:                  -0.544
REMARK UNBOUND:                -0.544
REMARK  Name = 7b.sdf
REMARK  6 active torsions:
REMARK  status: ('A' for Active; 'I' for Inactive)
REMARK    1  A    between atoms: N_7  and  C_12
REMARK    2  A    between atoms: C_9  and  C_10
REMARK    3  A    between atoms: C_10  and  C_11
REMARK    4  A    between atoms: C_11  and  O_20
REMARK    5  A    between atoms: C_12  and  C_13
REMARK    6  A    between atoms: O_20  and  C_21
REMARK                            x       y       z     vdW  Elec       q    Type
REMARK                         _______ _______ _______ _____ _____    ______ ____
ROOT
ATOM      1  C   UNL     1      -6.069  17.318 -20.338  0.00  0.00    -0.061 A 
ATOM      2  C   UNL     1      -5.105  17.448 -21.333  0.00  0.00    -0.060 A 
ATOM      3  C   UNL     1      -3.750  17.571 -21.010  0.00  0.00    -0.038 A 
ATOM      4  C   UNL     1      -3.388  17.563 -19.654  0.00  0.00    +0.050 A 
ATOM      5  C   UNL     1      -4.335  17.391 -18.637  0.00  0.00    +0.004 A 
ATOM      6  C   UNL     1      -5.696  17.276 -18.992  0.00  0.00    -0.052 A 
ATOM      7  N   UNL     1      -2.162  17.707 -19.036  0.00  0.00    -0.342 N 
ATOM      8  C   UNL     1      -2.298  17.571 -17.677  0.00  0.00    +0.010 A 
ATOM      9  C   UNL     1      -3.632  17.358 -17.390  0.00  0.00    -0.012 A 
ENDROOT
BRANCH   9  10
ATOM     10  C   UNL     1      -4.221  17.146 -16.030  0.00  0.00    +0.072 C 
BRANCH  10  11
ATOM     11  C   UNL     1      -4.968  18.357 -15.508  0.00  0.00    +0.311 C 
ATOM     12  O   UNL     1      -6.019  18.815 -15.936  0.00  0.00    -0.250 OA
BRANCH  11  13
ATOM     13  O   UNL     1      -4.278  18.877 -14.446  0.00  0.00    -0.468 OA
ATOM     14  C   UNL     1      -3.529  17.909 -13.711  0.00  0.00    +0.082 C 
ENDBRANCH  11  13
ENDBRANCH  10  11
ENDBRANCH   9  10
BRANCH   7  15
ATOM     15  C   UNL     1      -0.902  18.045 -19.695  0.00  0.00    +0.048 C 
BRANCH  15  16
ATOM     16  C   UNL     1       0.340  17.599 -18.963  0.00  0.00    -0.025 A 
ATOM     17  C   UNL     1       0.603  16.272 -18.609  0.00  0.00    -0.039 A 
ATOM     18  C   UNL     1       1.766  15.982 -17.910  0.00  0.00    +0.028 A 
ATOM     19  N   UNL     1       2.684  16.905 -17.559  0.00  0.00    -0.263 NA
ATOM     20  C   UNL     1       2.430  18.178 -17.925  0.00  0.00    +0.028 A 
ATOM     21  C   UNL     1       1.293  18.567 -18.619  0.00  0.00    -0.039 A 
ENDBRANCH  15  16
ENDBRANCH   7  15
TORSDOF 5
ENDMDL
