MODEL 1
REMARK VINA RESULT:    -7.879      0.000      0.000
REMARK INTER + INTRA:         -10.310
REMARK INTER:                  -9.721
REMARK INTRA:                  -0.588
REMARK UNBOUND:                -0.588
REMARK  Name = 7d.sdf
REMARK  5 active torsions:
REMARK  status: ('A' for Active; 'I' for Inactive)
REMARK    1  A    between atoms: C_9  and  C_10
REMARK    2  A    between atoms: C_10  and  C_11
REMARK    3  A    between atoms: C_11  and  O_20
REMARK    4  A    between atoms: C_12  and  C_13
REMARK    5  A    between atoms: O_20  and  C_22
REMARK                            x       y       z     vdW  Elec       q    Type
REMARK                         _______ _______ _______ _____ _____    ______ ____
ROOT
ATOM      1  C   UNL     1       5.369  17.171 -19.475  0.00  0.00    -0.061 A 
ATOM      2  C   UNL     1       6.036  16.103 -18.888  0.00  0.00    -0.060 A 
ATOM      3  C   UNL     1       5.439  15.358 -17.867  0.00  0.00    -0.037 A 
ATOM      4  C   UNL     1       4.148  15.717 -17.437  0.00  0.00    +0.057 A 
ATOM      5  C   UNL     1       3.454  16.785 -18.025  0.00  0.00    +0.004 A 
ATOM      6  C   UNL     1       4.082  17.519 -19.055  0.00  0.00    -0.052 A 
ATOM      7  N   UNL     1       3.300  15.126 -16.501  0.00  0.00    -0.283 N 
ATOM      8  C   UNL     1       2.154  15.897 -16.427  0.00  0.00    +0.018 A 
ATOM      9  C   UNL     1       2.176  16.874 -17.397  0.00  0.00    -0.011 A 
ATOM     10  C   UNL     1       3.521  13.942 -15.754  0.00  0.00    +0.263 C 
ATOM     11  O   UNL     1       4.676  13.575 -15.558  0.00  0.00    -0.267 OA
ENDROOT
BRANCH  10  12
ATOM     12  C   UNL     1       2.402  13.134 -15.202  0.00  0.00    +0.040 A 
ATOM     13  C   UNL     1       1.690  12.264 -16.040  0.00  0.00    -0.049 A 
ATOM     14  C   UNL     1       0.600  11.552 -15.544  0.00  0.00    -0.061 A 
ATOM     15  C   UNL     1       0.236  11.685 -14.205  0.00  0.00    -0.062 A 
ATOM     16  C   UNL     1       0.975  12.513 -13.356  0.00  0.00    -0.061 A 
ATOM     17  C   UNL     1       2.068  13.236 -13.849  0.00  0.00    -0.049 A 
ENDBRANCH  10  12
BRANCH   9  18
ATOM     18  C   UNL     1       1.063  17.832 -17.695  0.00  0.00    +0.072 C 
BRANCH  18  19
ATOM     19  C   UNL     1       0.109  17.316 -18.763  0.00  0.00    +0.311 C 
ATOM     20  O   UNL     1      -0.031  16.153 -19.115  0.00  0.00    -0.250 OA
BRANCH  19  21
ATOM     21  O   UNL     1      -0.602  18.366 -19.275  0.00  0.00    -0.468 OA
ATOM     22  C   UNL     1       0.215  19.375 -19.871  0.00  0.00    +0.082 C 
ENDBRANCH  19  21
ENDBRANCH  18  19
ENDBRANCH   9  18
TORSDOF 4
ENDMDL
