MODEL 1
REMARK VINA RESULT:    -9.944      0.000      0.000
REMARK INTER + INTRA:         -12.008
REMARK INTER:                 -11.688
REMARK INTRA:                  -0.319
REMARK UNBOUND:                -0.319
REMARK  Name = 8.sdf
REMARK  3 active torsions:
REMARK  status: ('A' for Active; 'I' for Inactive)
REMARK    1  A    between atoms: C_9  and  C_10
REMARK    2  A    between atoms: N_11  and  N_12
REMARK    3  A    between atoms: C_13  and  C_15
REMARK                            x       y       z     vdW  Elec       q    Type
REMARK                         _______ _______ _______ _____ _____    ______ ____
ROOT
ATOM      1  C   UNL     1      -1.990  16.884 -18.647  0.00  0.00    +0.055 C 
ATOM      2  N   UNL     1      -1.067  17.457 -19.347  0.00  0.00    -0.187 NA
ENDROOT
BRANCH   1  11
ATOM      3  C   UNL     1      -5.265  18.354 -15.606  0.00  0.00    -0.061 A 
ATOM      4  C   UNL     1      -6.439  18.734 -16.252  0.00  0.00    -0.060 A 
ATOM      5  C   UNL     1      -6.554  18.644 -17.642  0.00  0.00    -0.038 A 
ATOM      6  C   UNL     1      -5.447  18.169 -18.355  0.00  0.00    +0.047 A 
ATOM      7  C   UNL     1      -4.253  17.783 -17.741  0.00  0.00    +0.008 A 
ATOM      8  C   UNL     1      -4.168  17.876 -16.335  0.00  0.00    -0.052 A 
ATOM      9  N   UNL     1      -5.286  17.987 -19.710  0.00  0.00    -0.360 N 
ATOM     10  C   UNL     1      -4.034  17.510 -19.972  0.00  0.00    +0.011 A 
ATOM     11  C   UNL     1      -3.353  17.365 -18.776  0.00  0.00    +0.020 A 
ATOM     12  H   UNL     1      -5.974  18.173 -20.389  0.00  0.00    +0.000 HD
ENDBRANCH   1  11
BRANCH   2  13
ATOM     13  N   UNL     1       0.213  17.001 -19.213  0.00  0.00    -0.203 N 
ATOM     14  C   UNL     1       1.222  17.935 -19.008  0.00  0.00    +0.263 C 
ATOM     15  O   UNL     1       1.047  19.148 -18.923  0.00  0.00    -0.268 OA
ATOM     16  H   UNL     1       0.415  16.039 -19.259  0.00  0.00    +0.000 HD
BRANCH  14  17
ATOM     17  C   UNL     1       2.608  17.408 -18.859  0.00  0.00    +0.038 A 
ATOM     18  C   UNL     1       3.730  18.078 -19.362  0.00  0.00    -0.049 A 
ATOM     19  C   UNL     1       5.012  17.555 -19.145  0.00  0.00    -0.047 A 
ATOM     20  C   UNL     1       5.171  16.371 -18.425  0.00  0.00    +0.018 A 
ATOM     21  C   UNL     1       4.062  15.700 -17.914  0.00  0.00    -0.047 A 
ATOM     22  C   UNL     1       2.784  16.222 -18.128  0.00  0.00    -0.049 A 
ATOM     23 BR   UNL     1       6.904  15.684 -18.118  0.00  0.00    -0.050 Br
ENDBRANCH  14  17
ENDBRANCH   2  13
TORSDOF 3
ENDMDL
