MODEL 1
REMARK VINA RESULT:   -10.307      0.000      0.000
REMARK INTER + INTRA:         -13.433
REMARK INTER:                 -13.320
REMARK INTRA:                  -0.113
REMARK UNBOUND:                -0.113
REMARK  Name = 8a.sdf
REMARK  5 active torsions:
REMARK  status: ('A' for Active; 'I' for Inactive)
REMARK    1  A    between atoms: N_7  and  C_12
REMARK    2  A    between atoms: C_9  and  C_10
REMARK    3  A    between atoms: N_11  and  N_20
REMARK    4  A    between atoms: C_12  and  C_13
REMARK    5  A    between atoms: C_21  and  C_23
REMARK                            x       y       z     vdW  Elec       q    Type
REMARK                         _______ _______ _______ _____ _____    ______ ____
ROOT
ATOM      1  C   UNL     1       6.248  15.945 -18.855  0.00  0.00    -0.061 A 
ATOM      2  C   UNL     1       5.957  16.923 -19.798  0.00  0.00    -0.060 A 
ATOM      3  C   UNL     1       4.747  17.623 -19.759  0.00  0.00    -0.038 A 
ATOM      4  C   UNL     1       3.834  17.323 -18.734  0.00  0.00    +0.050 A 
ATOM      5  C   UNL     1       4.126  16.373 -17.746  0.00  0.00    +0.009 A 
ATOM      6  C   UNL     1       5.348  15.668 -17.824  0.00  0.00    -0.052 A 
ATOM      7  N   UNL     1       2.566  17.803 -18.468  0.00  0.00    -0.342 N 
ATOM      8  C   UNL     1       2.092  17.245 -17.307  0.00  0.00    +0.015 A 
ATOM      9  C   UNL     1       3.033  16.357 -16.823  0.00  0.00    +0.020 A 
ENDROOT
BRANCH   9  10
ATOM     10  C   UNL     1       2.921  15.575 -15.614  0.00  0.00    +0.055 C 
ATOM     11  N   UNL     1       2.785  14.289 -15.685  0.00  0.00    -0.187 NA
BRANCH  11  12
ATOM     12  N   UNL     1       2.680  13.631 -14.493  0.00  0.00    -0.203 N 
ATOM     13  C   UNL     1       2.169  12.340 -14.468  0.00  0.00    +0.263 C 
ATOM     14  O   UNL     1       1.800  11.704 -15.446  0.00  0.00    -0.268 OA
ATOM     15  H   UNL     1       2.964  14.069 -13.658  0.00  0.00    +0.000 HD
BRANCH  13  16
ATOM     16  C   UNL     1       2.117  11.696 -13.122  0.00  0.00    +0.038 A 
ATOM     17  C   UNL     1       2.326  10.325 -12.931  0.00  0.00    -0.049 A 
ATOM     18  C   UNL     1       2.263   9.778 -11.645  0.00  0.00    -0.047 A 
ATOM     19  C   UNL     1       2.001  10.605 -10.550  0.00  0.00    +0.018 A 
ATOM     20  C   UNL     1       1.815  11.972 -10.725  0.00  0.00    -0.047 A 
ATOM     21  C   UNL     1       1.879  12.519 -12.010  0.00  0.00    -0.049 A 
ATOM     22 BR   UNL     1       1.912   9.859  -8.817  0.00  0.00    -0.050 Br
ENDBRANCH  13  16
ENDBRANCH  11  12
ENDBRANCH   9  10
BRANCH   7  23
ATOM     23  C   UNL     1       1.777  18.685 -19.327  0.00  0.00    +0.048 C 
BRANCH  23  24
ATOM     24  C   UNL     1       0.299  18.411 -19.204  0.00  0.00    -0.028 A 
ATOM     25  C   UNL     1      -0.170  17.107 -18.982  0.00  0.00    -0.056 A 
ATOM     26  C   UNL     1      -1.539  16.836 -18.975  0.00  0.00    -0.047 A 
ATOM     27  C   UNL     1      -2.449  17.870 -19.177  0.00  0.00    +0.018 A 
ATOM     28  C   UNL     1      -2.004  19.180 -19.347  0.00  0.00    -0.047 A 
ATOM     29  C   UNL     1      -0.634  19.449 -19.359  0.00  0.00    -0.056 A 
ATOM     30 BR   UNL     1      -4.299  17.489 -19.255  0.00  0.00    -0.050 Br
ENDBRANCH  23  24
ENDBRANCH   7  23
TORSDOF 5
ENDMDL
