MODEL 1
REMARK VINA RESULT:   -10.349      0.000      0.000
REMARK INTER + INTRA:         -12.635
REMARK INTER:                 -12.164
REMARK INTRA:                  -0.472
REMARK UNBOUND:                -0.472
REMARK  Name = 9.sdf
REMARK  3 active torsions:
REMARK  status: ('A' for Active; 'I' for Inactive)
REMARK    1  A    between atoms: C_9  and  C_10
REMARK    2  A    between atoms: C_11  and  C_12
REMARK    3  A    between atoms: C_12  and  C_13
REMARK                            x       y       z     vdW  Elec       q    Type
REMARK                         _______ _______ _______ _____ _____    ______ ____
ROOT
ATOM      1  C   UNL     1       2.446  15.780 -17.922  0.00  0.00    -0.061 A 
ATOM      2  C   UNL     1       3.466  16.720 -18.028  0.00  0.00    -0.060 A 
ATOM      3  C   UNL     1       3.210  18.003 -18.520  0.00  0.00    -0.038 A 
ATOM      4  C   UNL     1       1.895  18.311 -18.892  0.00  0.00    +0.047 A 
ATOM      5  C   UNL     1       0.840  17.401 -18.784  0.00  0.00    +0.007 A 
ATOM      6  C   UNL     1       1.137  16.105 -18.300  0.00  0.00    -0.052 A 
ATOM      7  N   UNL     1       1.376  19.474 -19.413  0.00  0.00    -0.360 N 
ATOM      8  C   UNL     1       0.033  19.335 -19.644  0.00  0.00    +0.010 A 
ATOM      9  C   UNL     1      -0.341  18.073 -19.238  0.00  0.00    +0.000 A 
ATOM     10  H   UNL     1       1.896  20.290 -19.594  0.00  0.00    +0.000 HD
ENDROOT
BRANCH   9  11
ATOM     11  C   UNL     1      -1.691  17.605 -19.315  0.00  0.00    -0.049 C 
ATOM     12  C   UNL     1      -2.765  18.400 -19.419  0.00  0.00    -0.014 C 
BRANCH  12  13
ATOM     13  C   UNL     1      -4.146  17.855 -19.452  0.00  0.00    +0.186 C 
ATOM     14  O   UNL     1      -4.579  17.212 -20.400  0.00  0.00    -0.287 OA
BRANCH  13  15
ATOM     15  C   UNL     1      -5.002  18.167 -18.274  0.00  0.00    +0.022 A 
ATOM     16  C   UNL     1      -6.353  18.470 -18.471  0.00  0.00    -0.051 A 
ATOM     17  C   UNL     1      -7.162  18.788 -17.377  0.00  0.00    -0.061 A 
ATOM     18  C   UNL     1      -6.629  18.790 -16.087  0.00  0.00    -0.062 A 
ATOM     19  C   UNL     1      -5.291  18.460 -15.884  0.00  0.00    -0.061 A 
ATOM     20  C   UNL     1      -4.479  18.143 -16.973  0.00  0.00    -0.051 A 
ENDBRANCH  13  15
ENDBRANCH  12  13
ENDBRANCH   9  11
TORSDOF 3
ENDMDL
