REMARK  Name = native.pdb
REMARK  14 active torsions:
REMARK  status: ('A' for Active; 'I' for Inactive)
REMARK    1  A    between atoms: O_1  and  C_13
REMARK    2  A    between atoms: N_2  and  C_13
REMARK    3  A    between atoms: N_2  and  C_15
REMARK    4  A    between atoms: C_3  and  O_31
REMARK    5  A    between atoms: O_4  and  C_20
REMARK    6  A    between atoms: O_4  and  C_24
REMARK    7  A    between atoms: C_13  and  N_26
REMARK    8  A    between atoms: C_14  and  C_17
REMARK    9  A    between atoms: C_16  and  N_29
REMARK   10  A    between atoms: C_18  and  N_30
REMARK   11  A    between atoms: C_19  and  O_27
REMARK   12  A    between atoms: C_21  and  O_31
REMARK   13  A    between atoms: C_22  and  O_27
REMARK   14  A    between atoms: N_26  and  C_36
REMARK                            x       y       z     vdW  Elec       q    Type
REMARK                         _______ _______ _______ _____ _____    ______ ____
ROOT
ATOM      1  C   UNL     1       4.460  -3.377   3.957  0.00  0.00    -0.059 A 
ATOM      2  C   UNL     1       5.110  -4.607   3.871  0.00  0.00    -0.050 A 
ATOM      3  C   UNL     1       4.614  -2.431   2.936  0.00  0.00    -0.039 A 
ATOM      4  C   UNL     1       5.913  -4.900   2.762  0.00  0.00    +0.039 A 
ATOM      5  C   UNL     1       5.409  -2.696   1.812  0.00  0.00    +0.045 A 
ATOM      6  C   UNL     1       6.018  -3.953   1.740  0.00  0.00    -0.027 A 
ENDROOT
BRANCH   5   9
ATOM      7  C   UNL     1       5.554  -0.358   1.130  0.00  0.00    +0.045 C 
ATOM      8  N   UNL     1       6.557  -2.077  -0.239  0.00  0.00    -0.239 NA
ATOM      9  N   UNL     1       5.600  -1.770   0.762  0.00  0.00    -0.265 N 
ATOM     10  C   UNL     1       7.157  -0.807  -0.652  0.00  0.00    +0.031 C 
ATOM     11  C   UNL     1       6.444   0.333   0.092  0.00  0.00    +0.042 C 
ATOM     12  H   UNL     1       6.101  -2.525  -1.034  0.00  0.00    +0.000 HD
BRANCH  11  13
ATOM     13  N   UNL     1       5.847   1.379  -0.745  0.00  0.00    -0.271 N 
ATOM     14  H   UNL     1       5.453   2.086  -0.124  0.00  0.00    +0.000 HD
ATOM     15  H   UNL     1       6.605   1.712  -1.341  0.00  0.00    +0.000 HD
BRANCH  13  16
ATOM     16  C   UNL     1       4.805   0.965  -1.652  0.00  0.00    +0.177 C 
BRANCH  16  17
ATOM     17  O   UNL     1       3.692   0.580  -0.889  0.00  0.00    -0.362 OA
ATOM     18  H   UNL     1       2.977   0.296  -1.481  0.00  0.00    +0.000 HD
ENDBRANCH  16  17
BRANCH  16  19
ATOM     19  N   UNL     1       4.283   1.962  -2.550  0.00  0.00    -0.307 N 
ATOM     20  H   UNL     1       3.328   2.201  -2.551  0.00  0.00    +0.000 HD
BRANCH  19  24
ATOM     21  C   UNL     1       7.164   2.513  -4.855  0.00  0.00    -0.060 A 
ATOM     22  C   UNL     1       5.889   4.545  -4.683  0.00  0.00    -0.060 A 
ATOM     23  C   UNL     1       6.257   1.877  -4.015  0.00  0.00    -0.041 A 
ATOM     24  C   UNL     1       5.194   2.577  -3.424  0.00  0.00    +0.030 A 
ATOM     25  C   UNL     1       6.992   3.853  -5.178  0.00  0.00    -0.062 A 
ATOM     26  C   UNL     1       4.988   3.905  -3.824  0.00  0.00    -0.041 A 
ENDBRANCH  19  24
ENDBRANCH  16  19
ENDBRANCH  13  16
ENDBRANCH  11  13
ENDBRANCH   5   9
BRANCH   4  27
ATOM     27  C   UNL     1       6.640  -6.199   2.689  0.00  0.00    +0.248 C 
ATOM     28  O   UNL     1       6.428  -7.027   3.571  0.00  0.00    -0.270 OA
ATOM     29  N   UNL     1       7.543  -6.341   1.636  0.00  0.00    -0.281 N 
ATOM     30  H   UNL     1       7.644  -5.569   1.034  0.00  0.00    +0.000 HD
BRANCH  29  32
ATOM     31  C   UNL     1       8.088  -8.716   1.930  0.00  0.00    +0.005 A 
ATOM     32  C   UNL     1       8.326  -7.480   1.345  0.00  0.00    +0.041 A 
ATOM     33  C   UNL     1      10.256  -8.383   0.173  0.00  0.00    +0.167 A 
ATOM     34  C   UNL     1       8.928  -9.792   1.657  0.00  0.00    +0.167 A 
ATOM     35  C   UNL     1      10.057  -9.617   0.834  0.00  0.00    +0.204 A 
ATOM     36  C   UNL     1       9.376  -7.329   0.435  0.00  0.00    +0.005 A 
BRANCH  35  38
ATOM     37  C   UNL     1      12.241 -10.513   0.508  0.00  0.00    +0.079 C 
ATOM     38  O   UNL     1      10.849 -10.733   0.694  0.00  0.00    -0.488 OA
ENDBRANCH  35  38
BRANCH  34  39
ATOM     39  O   UNL     1       8.733 -11.032   2.221  0.00  0.00    -0.491 OA
ATOM     40  C   UNL     1       7.375 -11.374   2.488  0.00  0.00    +0.079 C 
ENDBRANCH  34  39
BRANCH  33  42
ATOM     41  C   UNL     1      11.513  -7.069  -1.397  0.00  0.00    +0.079 C 
ATOM     42  O   UNL     1      11.297  -8.292  -0.709  0.00  0.00    -0.491 OA
ENDBRANCH  33  42
ENDBRANCH  29  32
ENDBRANCH   4  27
TORSDOF 11
