REMARK  Name = 8b.sdf
REMARK  5 active torsions:
REMARK  status: ('A' for Active; 'I' for Inactive)
REMARK    1  A    between atoms: N_7  and  C_12
REMARK    2  A    between atoms: C_9  and  C_10
REMARK    3  A    between atoms: N_11  and  N_19
REMARK    4  A    between atoms: C_12  and  C_13
REMARK    5  A    between atoms: C_20  and  C_22
REMARK                            x       y       z     vdW  Elec       q    Type
REMARK                         _______ _______ _______ _____ _____    ______ ____
ROOT
ATOM      1  C   UNL     1      -2.130  -0.932  -0.048  0.00  0.00    -0.061 A 
ATOM      2  C   UNL     1      -2.186   0.448  -0.204  0.00  0.00    -0.060 A 
ATOM      3  C   UNL     1      -1.017   1.216  -0.254  0.00  0.00    -0.038 A 
ATOM      4  C   UNL     1       0.221   0.559  -0.142  0.00  0.00    +0.050 A 
ATOM      5  C   UNL     1       0.300  -0.837  -0.041  0.00  0.00    +0.009 A 
ATOM      6  C   UNL     1      -0.897  -1.584   0.019  0.00  0.00    -0.052 A 
ATOM      7  N   UNL     1       1.518   1.039  -0.089  0.00  0.00    -0.342 N 
ATOM      8  C   UNL     1       2.399  -0.013  -0.045  0.00  0.00    +0.015 A 
ATOM      9  C   UNL     1       1.684  -1.194  -0.034  0.00  0.00    +0.020 A 
ENDROOT
BRANCH   9  10
ATOM     10  C   UNL     1       2.246  -2.529  -0.016  0.00  0.00    +0.055 C 
ATOM     11  N   UNL     1       3.531  -2.685  -0.046  0.00  0.00    -0.187 NA
BRANCH  11  12
ATOM     12  N   UNL     1       3.977  -3.975  -0.042  0.00  0.00    -0.203 N 
ATOM     13  C   UNL     1       5.346  -4.225  -0.052  0.00  0.00    +0.263 C 
ATOM     14  O   UNL     1       6.221  -3.369  -0.050  0.00  0.00    -0.268 OA
ATOM     15  H   UNL     1       3.336  -4.722  -0.031  0.00  0.00    +0.000 HD
BRANCH  13  16
ATOM     16  C   UNL     1       5.738  -5.664  -0.021  0.00  0.00    +0.038 A 
ATOM     17  C   UNL     1       4.945  -6.674  -0.582  0.00  0.00    -0.049 A 
ATOM     18  C   UNL     1       5.355  -8.010  -0.511  0.00  0.00    -0.047 A 
ATOM     19  C   UNL     1       6.561  -8.335   0.111  0.00  0.00    +0.018 A 
ATOM     20  C   UNL     1       7.371  -7.337   0.646  0.00  0.00    -0.047 A 
ATOM     21  C   UNL     1       6.962  -6.002   0.576  0.00  0.00    -0.049 A 
ATOM     22 BR   UNL     1       7.102 -10.143   0.221  0.00  0.00    -0.050 Br
ENDBRANCH  13  16
ENDBRANCH  11  12
ENDBRANCH   9  10
BRANCH   7  23
ATOM     23  C   UNL     1       1.929   2.436   0.041  0.00  0.00    +0.048 C 
BRANCH  23  24
ATOM     24  C   UNL     1       2.212   3.071  -1.295  0.00  0.00    -0.025 A 
ATOM     25  C   UNL     1       1.222   3.792  -1.969  0.00  0.00    -0.039 A 
ATOM     26  C   UNL     1       1.503   4.292  -3.231  0.00  0.00    +0.028 A 
ATOM     27  N   UNL     1       2.692   4.146  -3.849  0.00  0.00    -0.263 NA
ATOM     28  C   UNL     1       3.646   3.470  -3.174  0.00  0.00    +0.028 A 
ATOM     29  C   UNL     1       3.459   2.926  -1.913  0.00  0.00    -0.039 A 
ENDBRANCH  23  24
ENDBRANCH   7  23
TORSDOF 5
