REMARK  Name = native.pdb
REMARK  2 active torsions:
REMARK  status: ('A' for Active; 'I' for Inactive)
REMARK    1  A    between atoms: C_10  and  C_11
REMARK    2  A    between atoms: C_16  and  C_17
REMARK                            x       y       z     vdW  Elec       q    Type
REMARK                         _______ _______ _______ _____ _____    ______ ____
ROOT
ATOM      1  C   UNL     1      -3.693  -1.456  -0.036  0.00  0.00    +0.073 A 
ATOM      2  C   UNL     1      -4.612  -1.244  -1.060  0.00  0.00    -0.027 A 
ATOM      3  N   UNL     1      -3.963  -2.293   0.994  0.00  0.00    -0.255 NA
ATOM      4  C   UNL     1      -5.157  -2.926   0.994  0.00  0.00    +0.029 A 
ATOM      5  C   UNL     1      -6.119  -2.765   0.012  0.00  0.00    -0.034 A 
ATOM      6  C   UNL     1      -5.847  -1.897  -1.040  0.00  0.00    +0.002 A 
ENDROOT
BRANCH   6   7
ATOM      7  C   UNL     1      -6.832  -1.604  -2.080  0.00  0.00    +0.048 A 
ATOM      8  C   UNL     1      -7.033  -0.430  -2.794  0.00  0.00    -0.024 A 
ATOM      9  C   UNL     1      -8.117  -0.626  -3.678  0.00  0.00    +0.058 A 
ATOM     10  C   UNL     1      -8.727   0.280  -4.628  0.00  0.00    +0.246 C 
ATOM     11  O   UNL     1      -8.353   1.432  -4.805  0.00  0.00    -0.270 OA
ATOM     12  N   UNL     1      -9.774  -0.252  -5.343  0.00  0.00    -0.311 N 
ATOM     13  C   UNL     1     -10.355  -1.583  -5.189  0.00  0.00    +0.017 C 
ATOM     14  C   UNL     1      -9.686  -2.557  -4.192  0.00  0.00    +0.004 C 
ATOM     15  C   UNL     1      -8.554  -1.917  -3.486  0.00  0.00    +0.030 A 
ATOM     16  N   UNL     1      -7.767  -2.510  -2.538  0.00  0.00    -0.357 N 
ATOM     17  H   UNL     1     -10.176   0.326  -6.031  0.00  0.00    +0.000 HD
ATOM     18  H   UNL     1      -7.854  -3.440  -2.228  0.00  0.00    +0.000 HD
ENDBRANCH   6   7
BRANCH   1  28
ATOM     19  C   UNL     1      -1.713  -0.358  -1.142  0.00  0.00    -0.042 A 
ATOM     20  C   UNL     1      -0.511   0.359  -1.057  0.00  0.00    +0.001 A 
ATOM     21  C   UNL     1       0.179   0.772  -2.209  0.00  0.00    -0.053 A 
ATOM     22  C   UNL     1       1.368   1.487  -2.096  0.00  0.00    -0.061 A 
ATOM     23  C   UNL     1       1.867   1.792  -0.834  0.00  0.00    -0.060 A 
ATOM     24  C   UNL     1       1.175   1.378   0.309  0.00  0.00    -0.036 A 
ATOM     25  C   UNL     1      -0.010   0.661   0.224  0.00  0.00    +0.071 A 
ATOM     26  N   UNL     1      -0.639   0.279   1.347  0.00  0.00    -0.254 NA
ATOM     27  C   UNL     1      -1.801  -0.414   1.219  0.00  0.00    +0.037 A 
ATOM     28  C   UNL     1      -2.403  -0.754   0.011  0.00  0.00    +0.019 A 
ENDBRANCH   1  28
TORSDOF 2
