REMARK  Name = 0.sdf
REMARK  0 active torsions:
REMARK  status: ('A' for Active; 'I' for Inactive)
REMARK                            x       y       z     vdW  Elec       q    Type
REMARK                         _______ _______ _______ _____ _____    ______ ____
ROOT
ATOM      1  C   UNL     1       2.183  -0.670  -0.009  0.00  0.00    -0.061 A 
ATOM      2  C   UNL     1       2.143   0.723  -0.017  0.00  0.00    -0.060 A 
ATOM      3  C   UNL     1       0.924   1.410  -0.017  0.00  0.00    -0.038 A 
ATOM      4  C   UNL     1      -0.249   0.646  -0.014  0.00  0.00    +0.046 A 
ATOM      5  C   UNL     1      -0.239  -0.749  -0.008  0.00  0.00    -0.000 A 
ATOM      6  C   UNL     1       1.000  -1.418  -0.002  0.00  0.00    -0.053 A 
ATOM      7  N   UNL     1      -1.568   1.041  -0.018  0.00  0.00    -0.361 N 
ATOM      8  C   UNL     1      -2.391  -0.054  -0.024  0.00  0.00    +0.003 A 
ATOM      9  C   UNL     1      -1.596  -1.177  -0.013  0.00  0.00    -0.037 A 
ATOM     10  H   UNL     1      -1.875   1.976  -0.017  0.00  0.00    +0.000 HD
ENDROOT
TORSDOF 0
