REMARK  Name = 17f.sdf
REMARK  5 active torsions:
REMARK  status: ('A' for Active; 'I' for Inactive)
REMARK    1  A    between atoms: N_7  and  C_11
REMARK    2  A    between atoms: C_9  and  C_10
REMARK    3  A    between atoms: C_11  and  C_12
REMARK    4  A    between atoms: C_12  and  C_13
REMARK    5  A    between atoms: N_21  and  N_22
REMARK                            x       y       z     vdW  Elec       q    Type
REMARK                         _______ _______ _______ _____ _____    ______ ____
ROOT
ATOM      1  C   UNL     1      -1.952  -1.294  -0.520  0.00  0.00    -0.061 A 
ATOM      2  C   UNL     1      -2.017   0.012  -0.994  0.00  0.00    -0.060 A 
ATOM      3  C   UNL     1      -0.895   0.849  -0.966  0.00  0.00    -0.038 A 
ATOM      4  C   UNL     1       0.309   0.321  -0.475  0.00  0.00    +0.050 A 
ATOM      5  C   UNL     1       0.426  -1.027  -0.120  0.00  0.00    +0.009 A 
ATOM      6  C   UNL     1      -0.735  -1.830  -0.096  0.00  0.00    -0.052 A 
ATOM      7  N   UNL     1       1.537   0.903  -0.221  0.00  0.00    -0.338 N 
ATOM      8  C   UNL     1       2.464  -0.074   0.047  0.00  0.00    +0.015 A 
ATOM      9  C   UNL     1       1.815  -1.293   0.080  0.00  0.00    +0.020 A 
ENDROOT
BRANCH   9  10
ATOM     10  C   UNL     1       2.420  -2.600   0.222  0.00  0.00    +0.055 C 
ATOM     11  N   UNL     1       3.711  -2.708   0.264  0.00  0.00    -0.186 NA
BRANCH  11  12
ATOM     12  N   UNL     1       4.166  -4.002   0.272  0.00  0.00    -0.191 N 
ATOM     13  C   UNL     1       5.508  -4.284   0.310  0.00  0.00    +0.317 C 
ATOM     14  O   UNL     1       5.958  -5.416   0.192  0.00  0.00    -0.251 OA
ATOM     15  N   UNL     1       6.294  -3.196   0.498  0.00  0.00    -0.312 N 
ATOM     16  H   UNL     1       3.517  -4.742   0.249  0.00  0.00    +0.000 HD
ATOM     17  H   UNL     1       5.886  -2.304   0.587  0.00  0.00    +0.000 HD
ATOM     18  H   UNL     1       7.272  -3.298   0.546  0.00  0.00    +0.000 HD
ENDBRANCH  11  12
ENDBRANCH   9  10
BRANCH   7  19
ATOM     19  C   UNL     1       1.779   2.332  -0.017  0.00  0.00    +0.086 C 
BRANCH  19  20
ATOM     20  C   UNL     1       2.404   3.045  -1.194  0.00  0.00    +0.183 C 
ATOM     21  O   UNL     1       2.752   2.476  -2.222  0.00  0.00    -0.290 OA
BRANCH  20  22
ATOM     22  C   UNL     1       2.588   4.534  -1.096  0.00  0.00    +0.019 A 
ATOM     23  C   UNL     1       2.388   5.250   0.092  0.00  0.00    -0.050 A 
ATOM     24  C   UNL     1       2.493   6.647   0.101  0.00  0.00    -0.047 A 
ATOM     25  C   UNL     1       2.804   7.330  -1.074  0.00  0.00    +0.018 A 
ATOM     26  C   UNL     1       3.051   6.629  -2.250  0.00  0.00    -0.047 A 
ATOM     27  C   UNL     1       2.948   5.233  -2.259  0.00  0.00    -0.050 A 
ATOM     28 BR   UNL     1       2.861   9.219  -1.077  0.00  0.00    -0.050 Br
ENDBRANCH  20  22
ENDBRANCH  19  20
ENDBRANCH   7  19
TORSDOF 5
