MODEL 1
REMARK VINA RESULT:    -7.909      0.000      0.000
REMARK INTER + INTRA:         -10.550
REMARK INTER:                  -9.759
REMARK INTRA:                  -0.791
REMARK UNBOUND:                -0.791
REMARK  Name = 17c.sdf
REMARK  4 active torsions:
REMARK  status: ('A' for Active; 'I' for Inactive)
REMARK    1  A    between atoms: N_7  and  C_16
REMARK    2  A    between atoms: C_9  and  C_10
REMARK    3  A    between atoms: N_11  and  N_12
REMARK    4  A    between atoms: C_16  and  C_17
REMARK                            x       y       z     vdW  Elec       q    Type
REMARK                         _______ _______ _______ _____ _____    ______ ____
ROOT
ATOM      1  C   UNL     1      10.359  35.080  10.011  0.00  0.00    -0.061 A 
ATOM      2  C   UNL     1      10.239  34.474  11.256  0.00  0.00    -0.060 A 
ATOM      3  C   UNL     1      11.364  34.233  12.057  0.00  0.00    -0.038 A 
ATOM      4  C   UNL     1      12.631  34.587  11.559  0.00  0.00    +0.050 A 
ATOM      5  C   UNL     1      12.766  35.250  10.330  0.00  0.00    +0.009 A 
ATOM      6  C   UNL     1      11.611  35.495   9.552  0.00  0.00    -0.052 A 
ATOM      7  N   UNL     1      13.912  34.391  12.056  0.00  0.00    -0.342 N 
ATOM      8  C   UNL     1      14.821  34.994  11.218  0.00  0.00    +0.015 A 
ATOM      9  C   UNL     1      14.150  35.550  10.147  0.00  0.00    +0.020 A 
ENDROOT
BRANCH   9  10
ATOM     10  C   UNL     1      14.757  36.289   9.058  0.00  0.00    +0.055 C 
ATOM     11  N   UNL     1      14.654  37.579   9.040  0.00  0.00    -0.186 NA
BRANCH  11  12
ATOM     12  N   UNL     1      15.217  38.205   7.963  0.00  0.00    -0.191 N 
ATOM     13  C   UNL     1      14.809  39.460   7.561  0.00  0.00    +0.317 C 
ATOM     14  O   UNL     1      15.312  40.051   6.626  0.00  0.00    -0.251 OA
ATOM     15  N   UNL     1      13.792  39.960   8.296  0.00  0.00    -0.312 N 
ATOM     16  H   UNL     1      15.932  37.750   7.462  0.00  0.00    +0.000 HD
ATOM     17  H   UNL     1      13.422  39.438   9.044  0.00  0.00    +0.000 HD
ATOM     18  H   UNL     1      13.422  40.847   8.084  0.00  0.00    +0.000 HD
ENDBRANCH  11  12
ENDBRANCH   9  10
BRANCH   7  19
ATOM     19  C   UNL     1      14.312  33.553  13.192  0.00  0.00    +0.048 C 
BRANCH  19  20
ATOM     20  C   UNL     1      14.791  34.374  14.365  0.00  0.00    -0.028 A 
ATOM     21  C   UNL     1      16.107  34.235  14.829  0.00  0.00    -0.055 A 
ATOM     22  C   UNL     1      16.496  34.817  16.038  0.00  0.00    -0.043 A 
ATOM     23  C   UNL     1      15.583  35.575  16.765  0.00  0.00    +0.041 A 
ATOM     24  C   UNL     1      14.310  35.821  16.258  0.00  0.00    -0.043 A 
ATOM     25  C   UNL     1      13.915  35.224  15.059  0.00  0.00    -0.055 A 
ATOM     26 CL   UNL     1      16.013  36.160  18.325  0.00  0.00    -0.084 Cl
ENDBRANCH  19  20
ENDBRANCH   7  19
TORSDOF 4
ENDMDL
