MODEL 1
REMARK VINA RESULT:    -7.741      0.000      0.000
REMARK INTER + INTRA:          -9.848
REMARK INTER:                  -9.551
REMARK INTRA:                  -0.297
REMARK UNBOUND:                -0.297
REMARK  Name = 16.sdf
REMARK  4 active torsions:
REMARK  status: ('A' for Active; 'I' for Inactive)
REMARK    1  A    between atoms: C_9  and  C_10
REMARK    2  A    between atoms: C_10  and  O_11
REMARK    3  A    between atoms: O_11  and  C_12
REMARK    4  A    between atoms: C_12  and  C_13
REMARK                            x       y       z     vdW  Elec       q    Type
REMARK                         _______ _______ _______ _____ _____    ______ ____
ROOT
ATOM      1  C   UNL     1     -11.921  12.287 -32.348  0.00  0.00    -0.061 A 
ATOM      2  C   UNL     1     -12.074  11.111 -33.078  0.00  0.00    -0.060 A 
ATOM      3  C   UNL     1     -12.399   9.909 -32.443  0.00  0.00    -0.038 A 
ATOM      4  C   UNL     1     -12.563   9.933 -31.053  0.00  0.00    +0.047 A 
ATOM      5  C   UNL     1     -12.422  11.094 -30.290  0.00  0.00    +0.005 A 
ATOM      6  C   UNL     1     -12.092  12.293 -30.959  0.00  0.00    -0.052 A 
ATOM      7  N   UNL     1     -12.876   8.914 -30.185  0.00  0.00    -0.360 N 
ATOM      8  C   UNL     1     -12.933   9.387 -28.904  0.00  0.00    +0.008 A 
ATOM      9  C   UNL     1     -12.669  10.744 -28.921  0.00  0.00    +0.003 A 
ATOM     10  H   UNL     1     -13.036   7.979 -30.447  0.00  0.00    +0.000 HD
ENDROOT
BRANCH   9  11
ATOM     11  C   UNL     1     -12.636  11.658 -27.736  0.00  0.00    +0.075 C 
BRANCH  11  12
ATOM     12  O   UNL     1     -13.411  11.130 -26.656  0.00  0.00    -0.371 OA
BRANCH  12  13
ATOM     13  C   UNL     1     -14.491  11.989 -26.299  0.00  0.00    +0.073 C 
BRANCH  13  14
ATOM     14  C   UNL     1     -15.164  11.483 -25.044  0.00  0.00    -0.022 A 
ATOM     15  C   UNL     1     -14.848  10.212 -24.540  0.00  0.00    -0.055 A 
ATOM     16  C   UNL     1     -15.446   9.742 -23.367  0.00  0.00    -0.043 A 
ATOM     17  C   UNL     1     -16.356  10.545 -22.682  0.00  0.00    +0.041 A 
ATOM     18  C   UNL     1     -16.666  11.817 -23.156  0.00  0.00    -0.043 A 
ATOM     19  C   UNL     1     -16.068  12.285 -24.328  0.00  0.00    -0.055 A 
ATOM     20 CL   UNL     1     -17.095   9.964 -21.241  0.00  0.00    -0.084 Cl
ENDBRANCH  13  14
ENDBRANCH  12  13
ENDBRANCH  11  12
ENDBRANCH   9  11
TORSDOF 4
ENDMDL
