MODEL 1
REMARK VINA RESULT:    -6.856      0.000      0.000
REMARK INTER + INTRA:          -7.852
REMARK INTER:                  -7.658
REMARK INTRA:                  -0.194
REMARK UNBOUND:                -0.194
REMARK  Name = 17.sdf
REMARK  2 active torsions:
REMARK  status: ('A' for Active; 'I' for Inactive)
REMARK    1  A    between atoms: C_9  and  C_10
REMARK    2  A    between atoms: N_11  and  N_12
REMARK                            x       y       z     vdW  Elec       q    Type
REMARK                         _______ _______ _______ _____ _____    ______ ____
ROOT
ATOM      1  C   UNL     1     -15.332  11.933 -24.681  0.00  0.00    -0.061 A 
ATOM      2  C   UNL     1     -16.304  12.674 -24.014  0.00  0.00    -0.060 A 
ATOM      3  C   UNL     1     -16.989  12.143 -22.918  0.00  0.00    -0.038 A 
ATOM      4  C   UNL     1     -16.667  10.839 -22.524  0.00  0.00    +0.047 A 
ATOM      5  C   UNL     1     -15.699  10.068 -23.172  0.00  0.00    +0.008 A 
ATOM      6  C   UNL     1     -15.018  10.633 -24.270  0.00  0.00    -0.052 A 
ATOM      7  N   UNL     1     -17.180  10.078 -21.502  0.00  0.00    -0.360 N 
ATOM      8  C   UNL     1     -16.580   8.852 -21.486  0.00  0.00    +0.011 A 
ATOM      9  C   UNL     1     -15.648   8.804 -22.508  0.00  0.00    +0.020 A 
ATOM     10  H   UNL     1     -17.878  10.373 -20.873  0.00  0.00    +0.000 HD
ENDROOT
BRANCH   9  11
ATOM     11  C   UNL     1     -14.807   7.665 -22.811  0.00  0.00    +0.055 C 
ATOM     12  N   UNL     1     -14.947   7.122 -23.975  0.00  0.00    -0.186 NA
BRANCH  12  13
ATOM     13  N   UNL     1     -14.157   6.050 -24.262  0.00  0.00    -0.191 N 
ATOM     14  C   UNL     1     -13.243   6.117 -25.287  0.00  0.00    +0.317 C 
ATOM     15  O   UNL     1     -12.499   5.192 -25.590  0.00  0.00    -0.251 OA
ATOM     16  N   UNL     1     -13.237   7.304 -25.944  0.00  0.00    -0.312 N 
ATOM     17  H   UNL     1     -14.241   5.224 -23.733  0.00  0.00    +0.000 HD
ATOM     18  H   UNL     1     -13.851   8.022 -25.670  0.00  0.00    +0.000 HD
ATOM     19  H   UNL     1     -12.617   7.447 -26.696  0.00  0.00    +0.000 HD
ENDBRANCH  12  13
ENDBRANCH   9  11
TORSDOF 2
ENDMDL
