MODEL 1
REMARK VINA RESULT:    -7.334      0.000      0.000
REMARK INTER + INTRA:          -9.813
REMARK INTER:                  -9.049
REMARK INTRA:                  -0.764
REMARK UNBOUND:                -0.764
REMARK  Name = 17a.sdf
REMARK  4 active torsions:
REMARK  status: ('A' for Active; 'I' for Inactive)
REMARK    1  A    between atoms: N_7  and  C_16
REMARK    2  A    between atoms: C_9  and  C_10
REMARK    3  A    between atoms: N_11  and  N_12
REMARK    4  A    between atoms: C_16  and  C_17
REMARK                            x       y       z     vdW  Elec       q    Type
REMARK                         _______ _______ _______ _____ _____    ______ ____
ROOT
ATOM      1  C   UNL     1     -11.904   7.442 -28.727  0.00  0.00    -0.061 A 
ATOM      2  C   UNL     1     -11.369   7.416 -30.009  0.00  0.00    -0.060 A 
ATOM      3  C   UNL     1     -11.326   8.570 -30.799  0.00  0.00    -0.038 A 
ATOM      4  C   UNL     1     -11.841   9.765 -30.265  0.00  0.00    +0.050 A 
ATOM      5  C   UNL     1     -12.331   9.825 -28.953  0.00  0.00    +0.009 A 
ATOM      6  C   UNL     1     -12.373   8.640 -28.184  0.00  0.00    -0.052 A 
ATOM      7  N   UNL     1     -11.999  11.026 -30.813  0.00  0.00    -0.342 N 
ATOM      8  C   UNL     1     -12.484  11.885 -29.858  0.00  0.00    +0.015 A 
ATOM      9  C   UNL     1     -12.693  11.180 -28.690  0.00  0.00    +0.020 A 
ENDROOT
BRANCH   9  10
ATOM     10  C   UNL     1     -13.182  11.736 -27.445  0.00  0.00    +0.055 C 
ATOM     11  N   UNL     1     -14.330  11.352 -26.993  0.00  0.00    -0.186 NA
BRANCH  11  12
ATOM     12  N   UNL     1     -14.723  11.936 -25.824  0.00  0.00    -0.191 N 
ATOM     13  C   UNL     1     -14.926  11.202 -24.683  0.00  0.00    +0.317 C 
ATOM     14  O   UNL     1     -15.334  11.685 -23.638  0.00  0.00    -0.251 OA
ATOM     15  N   UNL     1     -14.634   9.882 -24.815  0.00  0.00    -0.312 N 
ATOM     16  H   UNL     1     -14.864  12.910 -25.799  0.00  0.00    +0.000 HD
ATOM     17  H   UNL     1     -14.308   9.534 -25.676  0.00  0.00    +0.000 HD
ATOM     18  H   UNL     1     -14.749   9.274 -24.050  0.00  0.00    +0.000 HD
ENDBRANCH  11  12
ENDBRANCH   9  10
BRANCH   7  19
ATOM     19  C   UNL     1     -11.818  11.403 -32.215  0.00  0.00    +0.048 C 
BRANCH  19  20
ATOM     20  C   UNL     1     -10.366  11.359 -32.621  0.00  0.00    -0.028 A 
ATOM     21  C   UNL     1      -9.923  10.416 -33.560  0.00  0.00    -0.056 A 
ATOM     22  C   UNL     1      -8.562  10.265 -33.825  0.00  0.00    -0.047 A 
ATOM     23  C   UNL     1      -7.636  11.071 -33.169  0.00  0.00    +0.018 A 
ATOM     24  C   UNL     1      -8.063  12.067 -32.294  0.00  0.00    -0.047 A 
ATOM     25  C   UNL     1      -9.426  12.214 -32.023  0.00  0.00    -0.056 A 
ATOM     26 BR   UNL     1      -5.787  10.777 -33.429  0.00  0.00    -0.050 Br
ENDBRANCH  19  20
ENDBRANCH   7  19
TORSDOF 4
ENDMDL
