MODEL 1
REMARK VINA RESULT:    -7.780      0.000      0.000
REMARK INTER + INTRA:         -10.652
REMARK INTER:                 -10.055
REMARK INTRA:                  -0.597
REMARK UNBOUND:                -0.597
REMARK  Name = 17g.sdf
REMARK  6 active torsions:
REMARK  status: ('A' for Active; 'I' for Inactive)
REMARK    1  A    between atoms: N_7  and  C_16
REMARK    2  A    between atoms: C_9  and  C_10
REMARK    3  A    between atoms: N_11  and  N_12
REMARK    4  A    between atoms: C_16  and  C_17
REMARK    5  A    between atoms: C_20  and  O_23
REMARK    6  A    between atoms: O_23  and  C_24
REMARK                            x       y       z     vdW  Elec       q    Type
REMARK                         _______ _______ _______ _____ _____    ______ ____
ROOT
ATOM      1  C   UNL     1     -17.704   9.965 -21.000  0.00  0.00    -0.061 A 
ATOM      2  C   UNL     1     -17.769   8.663 -20.520  0.00  0.00    -0.060 A 
ATOM      3  C   UNL     1     -17.054   7.632 -21.138  0.00  0.00    -0.038 A 
ATOM      4  C   UNL     1     -16.259   7.943 -22.255  0.00  0.00    +0.050 A 
ATOM      5  C   UNL     1     -16.142   9.257 -22.725  0.00  0.00    +0.009 A 
ATOM      6  C   UNL     1     -16.889  10.277 -22.092  0.00  0.00    -0.052 A 
ATOM      7  N   UNL     1     -15.494   7.147 -23.087  0.00  0.00    -0.342 N 
ATOM      8  C   UNL     1     -14.846   7.930 -24.008  0.00  0.00    +0.015 A 
ATOM      9  C   UNL     1     -15.218   9.247 -23.815  0.00  0.00    +0.020 A 
ENDROOT
BRANCH   9  10
ATOM     10  C   UNL     1     -14.743  10.381 -24.579  0.00  0.00    +0.055 C 
ATOM     11  N   UNL     1     -14.094  10.175 -25.680  0.00  0.00    -0.186 NA
BRANCH  11  12
ATOM     12  N   UNL     1     -13.666  11.301 -26.326  0.00  0.00    -0.191 N 
ATOM     13  C   UNL     1     -13.854  11.468 -27.679  0.00  0.00    +0.317 C 
ATOM     14  O   UNL     1     -13.518  12.477 -28.282  0.00  0.00    -0.251 OA
ATOM     15  N   UNL     1     -14.441  10.408 -28.288  0.00  0.00    -0.312 N 
ATOM     16  H   UNL     1     -13.212  12.009 -25.813  0.00  0.00    +0.000 HD
ATOM     17  H   UNL     1     -14.694   9.617 -27.760  0.00  0.00    +0.000 HD
ATOM     18  H   UNL     1     -14.614  10.430 -29.256  0.00  0.00    +0.000 HD
ENDBRANCH  11  12
ENDBRANCH   9  10
BRANCH   7  19
ATOM     19  C   UNL     1     -15.452   5.686 -23.097  0.00  0.00    +0.048 C 
BRANCH  19  20
ATOM     20  C   UNL     1     -14.157   5.165 -23.664  0.00  0.00    -0.028 A 
ATOM     21  C   UNL     1     -14.074   4.792 -25.009  0.00  0.00    -0.053 A 
ATOM     22  C   UNL     1     -12.919   4.184 -25.503  0.00  0.00    -0.020 A 
ATOM     23  C   UNL     1     -11.818   3.962 -24.676  0.00  0.00    +0.120 A 
ATOM     24  C   UNL     1     -11.865   4.389 -23.351  0.00  0.00    -0.020 A 
ATOM     25  C   UNL     1     -13.030   4.985 -22.847  0.00  0.00    -0.053 A 
BRANCH  23  26
ATOM     26  O   UNL     1     -10.803   3.262 -25.265  0.00  0.00    -0.495 OA
ATOM     27  C   UNL     1     -10.455   3.613 -26.597  0.00  0.00    +0.079 C 
ENDBRANCH  23  26
ENDBRANCH  19  20
ENDBRANCH   7  19
TORSDOF 5
ENDMDL
