MODEL 1
REMARK VINA RESULT:    -7.755      0.000      0.000
REMARK INTER + INTRA:         -11.248
REMARK INTER:                 -10.475
REMARK INTRA:                  -0.773
REMARK UNBOUND:                -0.773
REMARK  Name = 17j.sdf
REMARK  8 active torsions:
REMARK  status: ('A' for Active; 'I' for Inactive)
REMARK    1  A    between atoms: N_7  and  C_16
REMARK    2  A    between atoms: C_9  and  C_10
REMARK    3  A    between atoms: N_11  and  N_12
REMARK    4  A    between atoms: C_16  and  C_17
REMARK    5  A    between atoms: C_19  and  O_23
REMARK    6  A    between atoms: C_21  and  O_25
REMARK    7  A    between atoms: O_23  and  C_24
REMARK    8  A    between atoms: O_25  and  C_26
REMARK                            x       y       z     vdW  Elec       q    Type
REMARK                         _______ _______ _______ _____ _____    ______ ____
ROOT
ATOM      1  C   UNL     1     -17.724  10.079 -21.045  0.00  0.00    -0.061 A 
ATOM      2  C   UNL     1     -17.825   8.782 -20.554  0.00  0.00    -0.060 A 
ATOM      3  C   UNL     1     -17.106   7.733 -21.137  0.00  0.00    -0.038 A 
ATOM      4  C   UNL     1     -16.281   8.024 -22.236  0.00  0.00    +0.050 A 
ATOM      5  C   UNL     1     -16.130   9.330 -22.721  0.00  0.00    +0.009 A 
ATOM      6  C   UNL     1     -16.874  10.368 -22.116  0.00  0.00    -0.052 A 
ATOM      7  N   UNL     1     -15.501   7.207 -23.030  0.00  0.00    -0.342 N 
ATOM      8  C   UNL     1     -14.818   7.963 -23.948  0.00  0.00    +0.015 A 
ATOM      9  C   UNL     1     -15.175   9.288 -23.785  0.00  0.00    +0.020 A 
ENDROOT
BRANCH   9  10
ATOM     10  C   UNL     1     -14.659  10.402 -24.553  0.00  0.00    +0.055 C 
ATOM     11  N   UNL     1     -14.132  10.176 -25.713  0.00  0.00    -0.186 NA
BRANCH  11  12
ATOM     12  N   UNL     1     -13.654  11.282 -26.364  0.00  0.00    -0.191 N 
ATOM     13  C   UNL     1     -13.732  11.401 -27.729  0.00  0.00    +0.317 C 
ATOM     14  O   UNL     1     -13.332  12.385 -28.339  0.00  0.00    -0.251 OA
ATOM     15  N   UNL     1     -14.303  10.335 -28.345  0.00  0.00    -0.312 N 
ATOM     16  H   UNL     1     -13.245  12.008 -25.840  0.00  0.00    +0.000 HD
ATOM     17  H   UNL     1     -14.609   9.566 -27.813  0.00  0.00    +0.000 HD
ATOM     18  H   UNL     1     -14.409  10.331 -29.324  0.00  0.00    +0.000 HD
ENDBRANCH  11  12
ENDBRANCH   9  10
BRANCH   7  19
ATOM     19  C   UNL     1     -15.434   5.745 -22.966  0.00  0.00    +0.049 C 
BRANCH  19  20
ATOM     20  C   UNL     1     -14.358   5.119 -23.825  0.00  0.00    -0.021 A 
ATOM     21  C   UNL     1     -14.588   4.647 -25.125  0.00  0.00    -0.015 A 
ATOM     22  C   UNL     1     -13.582   3.998 -25.844  0.00  0.00    +0.124 A 
ATOM     23  C   UNL     1     -12.310   3.861 -25.284  0.00  0.00    +0.022 A 
ATOM     24  C   UNL     1     -12.040   4.362 -24.012  0.00  0.00    +0.124 A 
ATOM     25  C   UNL     1     -13.063   4.986 -23.292  0.00  0.00    -0.015 A 
BRANCH  22  26
ATOM     26  O   UNL     1     -13.726   3.451 -27.091  0.00  0.00    -0.495 OA
ATOM     27  C   UNL     1     -12.952   4.034 -28.134  0.00  0.00    +0.079 C 
ENDBRANCH  22  26
BRANCH  24  28
ATOM     28  O   UNL     1     -10.835   4.301 -23.365  0.00  0.00    -0.495 OA
ATOM     29  C   UNL     1     -10.797   4.810 -22.035  0.00  0.00    +0.079 C 
ENDBRANCH  24  28
ENDBRANCH  19  20
ENDBRANCH   7  19
TORSDOF 6
ENDMDL
