MODEL 1
REMARK VINA RESULT:    -7.242      0.000      0.000
REMARK INTER + INTRA:         -11.230
REMARK INTER:                 -10.206
REMARK INTRA:                  -1.025
REMARK UNBOUND:                -1.025
REMARK  Name = 17k.sdf
REMARK  10 active torsions:
REMARK  status: ('A' for Active; 'I' for Inactive)
REMARK    1  A    between atoms: N_7  and  C_16
REMARK    2  A    between atoms: C_9  and  C_10
REMARK    3  A    between atoms: N_11  and  N_12
REMARK    4  A    between atoms: C_16  and  C_17
REMARK    5  A    between atoms: C_19  and  O_23
REMARK    6  A    between atoms: C_20  and  O_27
REMARK    7  A    between atoms: C_21  and  O_25
REMARK    8  A    between atoms: O_23  and  C_24
REMARK    9  A    between atoms: O_25  and  C_26
REMARK   10  A    between atoms: O_27  and  C_28
REMARK                            x       y       z     vdW  Elec       q    Type
REMARK                         _______ _______ _______ _____ _____    ______ ____
ROOT
ATOM      1  C   UNL     1     -11.768  12.770 -32.696  0.00  0.00    -0.061 A 
ATOM      2  C   UNL     1     -10.820  11.875 -33.183  0.00  0.00    -0.060 A 
ATOM      3  C   UNL     1     -10.320  10.848 -32.376  0.00  0.00    -0.038 A 
ATOM      4  C   UNL     1     -10.797  10.747 -31.059  0.00  0.00    +0.050 A 
ATOM      5  C   UNL     1     -11.782  11.609 -30.561  0.00  0.00    +0.009 A 
ATOM      6  C   UNL     1     -12.264  12.641 -31.396  0.00  0.00    -0.052 A 
ATOM      7  N   UNL     1     -10.462   9.881 -30.036  0.00  0.00    -0.342 N 
ATOM      8  C   UNL     1     -11.249  10.131 -28.940  0.00  0.00    +0.015 A 
ATOM      9  C   UNL     1     -12.092  11.188 -29.230  0.00  0.00    +0.020 A 
ENDROOT
BRANCH   9  10
ATOM     10  C   UNL     1     -13.091  11.739 -28.341  0.00  0.00    +0.055 C 
ATOM     11  N   UNL     1     -12.974  11.542 -27.067  0.00  0.00    -0.186 NA
BRANCH  11  12
ATOM     12  N   UNL     1     -13.970  12.079 -26.298  0.00  0.00    -0.191 N 
ATOM     13  C   UNL     1     -14.716  11.303 -25.449  0.00  0.00    +0.317 C 
ATOM     14  O   UNL     1     -15.644  11.745 -24.782  0.00  0.00    -0.251 OA
ATOM     15  N   UNL     1     -14.339  10.002 -25.407  0.00  0.00    -0.312 N 
ATOM     16  H   UNL     1     -14.155  13.044 -26.356  0.00  0.00    +0.000 HD
ATOM     17  H   UNL     1     -13.587   9.689 -25.959  0.00  0.00    +0.000 HD
ATOM     18  H   UNL     1     -14.817   9.369 -24.823  0.00  0.00    +0.000 HD
ENDBRANCH  11  12
ENDBRANCH   9  10
BRANCH   7  19
ATOM     19  C   UNL     1      -9.399   8.875 -30.064  0.00  0.00    +0.049 C 
BRANCH  19  20
ATOM     20  C   UNL     1      -9.779   7.535 -29.471  0.00  0.00    -0.021 A 
ATOM     21  C   UNL     1     -10.489   6.554 -30.168  0.00  0.00    -0.011 A 
ATOM     22  C   UNL     1     -10.909   5.361 -29.554  0.00  0.00    +0.165 A 
ATOM     23  C   UNL     1     -10.567   5.104 -28.205  0.00  0.00    +0.204 A 
ATOM     24  C   UNL     1      -9.791   6.059 -27.512  0.00  0.00    +0.165 A 
ATOM     25  C   UNL     1      -9.416   7.255 -28.149  0.00  0.00    -0.011 A 
BRANCH  22  26
ATOM     26  O   UNL     1     -11.650   4.427 -30.234  0.00  0.00    -0.491 OA
ATOM     27  C   UNL     1     -13.067   4.460 -30.115  0.00  0.00    +0.079 C 
ENDBRANCH  22  26
BRANCH  24  28
ATOM     28  O   UNL     1      -9.314   6.014 -26.224  0.00  0.00    -0.491 OA
ATOM     29  C   UNL     1      -8.591   7.121 -25.704  0.00  0.00    +0.079 C 
ENDBRANCH  24  28
BRANCH  23  30
ATOM     30  O   UNL     1     -10.917   3.988 -27.491  0.00  0.00    -0.488 OA
ATOM     31  C   UNL     1     -11.988   4.019 -26.563  0.00  0.00    +0.079 C 
ENDBRANCH  23  30
ENDBRANCH  19  20
ENDBRANCH   7  19
TORSDOF 7
ENDMDL
