MODEL 1
REMARK VINA RESULT:    -9.647      0.000      0.000
REMARK INTER + INTRA:         -12.436
REMARK INTER:                 -11.903
REMARK INTRA:                  -0.533
REMARK UNBOUND:                -0.533
REMARK  Name = 18d.sdf
REMARK  4 active torsions:
REMARK  status: ('A' for Active; 'I' for Inactive)
REMARK    1  A    between atoms: C_9  and  C_10
REMARK    2  A    between atoms: N_11  and  N_12
REMARK    3  A    between atoms: C_13  and  C_15
REMARK    4  A    between atoms: C_16  and  C_17
REMARK                            x       y       z     vdW  Elec       q    Type
REMARK                         _______ _______ _______ _____ _____    ______ ____
ROOT
ATOM      1  C   UNL     1     -12.090  13.131 -32.306  0.00  0.00    -0.061 A 
ATOM      2  C   UNL     1     -11.161  12.816 -33.288  0.00  0.00    -0.060 A 
ATOM      3  C   UNL     1     -10.268  11.753 -33.117  0.00  0.00    -0.037 A 
ATOM      4  C   UNL     1     -10.318  11.016 -31.918  0.00  0.00    +0.057 A 
ATOM      5  C   UNL     1     -11.261  11.307 -30.920  0.00  0.00    +0.009 A 
ATOM      6  C   UNL     1     -12.153  12.384 -31.124  0.00  0.00    -0.052 A 
ATOM      7  N   UNL     1      -9.566   9.920 -31.489  0.00  0.00    -0.282 N 
ATOM      8  C   UNL     1     -10.020   9.570 -30.230  0.00  0.00    +0.023 A 
ATOM      9  C   UNL     1     -11.071  10.380 -29.851  0.00  0.00    +0.020 A 
ATOM     10  C   UNL     1      -8.515   9.265 -32.180  0.00  0.00    +0.263 C 
ATOM     11  O   UNL     1      -7.805   9.940 -32.933  0.00  0.00    -0.267 OA
ENDROOT
BRANCH  10  12
ATOM     12  C   UNL     1      -8.203   7.830 -31.995  0.00  0.00    +0.040 A 
ATOM     13  C   UNL     1      -9.034   6.846 -32.550  0.00  0.00    -0.049 A 
ATOM     14  C   UNL     1      -8.835   5.509 -32.224  0.00  0.00    -0.061 A 
ATOM     15  C   UNL     1      -7.778   5.146 -31.391  0.00  0.00    -0.062 A 
ATOM     16  C   UNL     1      -6.894   6.116 -30.910  0.00  0.00    -0.061 A 
ATOM     17  C   UNL     1      -7.099   7.460 -31.217  0.00  0.00    -0.049 A 
ENDBRANCH  10  12
BRANCH   9  18
ATOM     18  C   UNL     1     -11.794  10.270 -28.595  0.00  0.00    +0.055 C 
ATOM     19  N   UNL     1     -12.067  11.346 -27.931  0.00  0.00    -0.187 NA
BRANCH  19  20
ATOM     20  N   UNL     1     -12.743  11.199 -26.749  0.00  0.00    -0.203 N 
ATOM     21  C   UNL     1     -14.101  11.490 -26.700  0.00  0.00    +0.263 C 
ATOM     22  O   UNL     1     -14.778  11.881 -27.651  0.00  0.00    -0.268 OA
ATOM     23  H   UNL     1     -12.271  10.890 -25.943  0.00  0.00    +0.000 HD
BRANCH  21  24
ATOM     24  C   UNL     1     -14.769  11.267 -25.387  0.00  0.00    +0.038 A 
ATOM     25  C   UNL     1     -14.688  10.043 -24.710  0.00  0.00    -0.050 A 
ATOM     26  C   UNL     1     -15.352   9.873 -23.491  0.00  0.00    -0.061 A 
ATOM     27  C   UNL     1     -16.083  10.925 -22.938  0.00  0.00    -0.062 A 
ATOM     28  C   UNL     1     -16.136  12.157 -23.588  0.00  0.00    -0.061 A 
ATOM     29  C   UNL     1     -15.478  12.330 -24.807  0.00  0.00    -0.050 A 
ENDBRANCH  21  24
ENDBRANCH  19  20
ENDBRANCH   9  18
TORSDOF 4
ENDMDL
