MODEL 1
REMARK VINA RESULT:    -6.856      0.000      0.000
REMARK INTER + INTRA:          -8.670
REMARK INTER:                  -8.059
REMARK INTRA:                  -0.611
REMARK UNBOUND:                -0.611
REMARK  Name = 1a.sdf
REMARK  3 active torsions:
REMARK  status: ('A' for Active; 'I' for Inactive)
REMARK    1  A    between atoms: N_7  and  C_12
REMARK    2  A    between atoms: C_9  and  C_10
REMARK    3  A    between atoms: C_12  and  C_13
REMARK                            x       y       z     vdW  Elec       q    Type
REMARK                         _______ _______ _______ _____ _____    ______ ____
ROOT
ATOM      1  C   UNL     1     -14.137  11.451 -27.079  0.00  0.00    -0.061 A 
ATOM      2  C   UNL     1     -13.753  10.117 -26.995  0.00  0.00    -0.060 A 
ATOM      3  C   UNL     1     -13.997   9.371 -25.837  0.00  0.00    -0.038 A 
ATOM      4  C   UNL     1     -14.649  10.000 -24.762  0.00  0.00    +0.050 A 
ATOM      5  C   UNL     1     -15.083  11.329 -24.841  0.00  0.00    +0.010 A 
ATOM      6  C   UNL     1     -14.807  12.064 -26.017  0.00  0.00    -0.052 A 
ATOM      7  N   UNL     1     -14.981   9.541 -23.500  0.00  0.00    -0.342 N 
ATOM      8  C   UNL     1     -15.669  10.515 -22.818  0.00  0.00    +0.016 A 
ATOM      9  C   UNL     1     -15.749  11.638 -23.616  0.00  0.00    +0.039 A 
ENDROOT
BRANCH   9  10
ATOM     10  C   UNL     1     -16.395  12.882 -23.243  0.00  0.00    +0.152 C 
ATOM     11  O   UNL     1     -17.412  13.318 -23.777  0.00  0.00    -0.296 OA
ENDBRANCH   9  10
BRANCH   7  12
ATOM     12  C   UNL     1     -14.575   8.270 -22.903  0.00  0.00    +0.048 C 
BRANCH  12  13
ATOM     13  C   UNL     1     -15.543   7.162 -23.232  0.00  0.00    -0.028 A 
ATOM     14  C   UNL     1     -15.173   6.131 -24.109  0.00  0.00    -0.056 A 
ATOM     15  C   UNL     1     -16.101   5.163 -24.498  0.00  0.00    -0.047 A 
ATOM     16  C   UNL     1     -17.401   5.214 -24.002  0.00  0.00    +0.018 A 
ATOM     17  C   UNL     1     -17.772   6.200 -23.091  0.00  0.00    -0.047 A 
ATOM     18  C   UNL     1     -16.844   7.170 -22.706  0.00  0.00    -0.056 A 
ATOM     19 BR   UNL     1     -18.679   3.953 -24.596  0.00  0.00    -0.050 Br
ENDBRANCH  12  13
ENDBRANCH   7  12
TORSDOF 3
ENDMDL
