MODEL 1
REMARK VINA RESULT:    -7.798      0.000      0.000
REMARK INTER + INTRA:         -10.433
REMARK INTER:                 -10.077
REMARK INTRA:                  -0.356
REMARK UNBOUND:                -0.356
REMARK  Name = 21.sdf
REMARK  5 active torsions:
REMARK  status: ('A' for Active; 'I' for Inactive)
REMARK    1  A    between atoms: C_9  and  C_10
REMARK    2  A    between atoms: C_10  and  O_11
REMARK    3  A    between atoms: O_11  and  C_12
REMARK    4  A    between atoms: C_12  and  C_13
REMARK    5  A    between atoms: C_13  and  C_14
REMARK                            x       y       z     vdW  Elec       q    Type
REMARK                         _______ _______ _______ _____ _____    ______ ____
ROOT
ATOM      1  C   UNL     1     -14.444  12.240 -25.750  0.00  0.00    +0.075 C 
ENDROOT
BRANCH   1  10
ATOM      2  C   UNL     1     -15.192   8.233 -23.361  0.00  0.00    -0.061 A 
ATOM      3  C   UNL     1     -16.099   8.394 -22.316  0.00  0.00    -0.060 A 
ATOM      4  C   UNL     1     -16.617   9.656 -22.011  0.00  0.00    -0.038 A 
ATOM      5  C   UNL     1     -16.226  10.737 -22.811  0.00  0.00    +0.047 A 
ATOM      6  C   UNL     1     -15.345  10.607 -23.886  0.00  0.00    +0.005 A 
ATOM      7  C   UNL     1     -14.796   9.332 -24.137  0.00  0.00    -0.052 A 
ATOM      8  N   UNL     1     -16.570  12.066 -22.738  0.00  0.00    -0.360 N 
ATOM      9  C   UNL     1     -15.975  12.768 -23.749  0.00  0.00    +0.008 A 
ATOM     10  C   UNL     1     -15.223  11.893 -24.514  0.00  0.00    +0.003 A 
ATOM     11  H   UNL     1     -17.161  12.458 -22.056  0.00  0.00    +0.000 HD
ENDBRANCH   1  10
BRANCH   1  12
ATOM     12  O   UNL     1     -14.970  11.554 -26.894  0.00  0.00    -0.367 OA
BRANCH  12  13
ATOM     13  C   UNL     1     -14.235  11.808 -28.081  0.00  0.00    +0.111 C 
BRANCH  13  14
ATOM     14  C   UNL     1     -13.533  10.559 -28.612  0.00  0.00    +0.189 C 
ATOM     15  O   UNL     1     -13.590   9.484 -28.002  0.00  0.00    -0.290 OA
BRANCH  14  16
ATOM     16  C   UNL     1     -12.849  10.599 -29.939  0.00  0.00    +0.020 A 
ATOM     17  C   UNL     1     -13.074   9.633 -30.925  0.00  0.00    -0.050 A 
ATOM     18  C   UNL     1     -12.350   9.665 -32.121  0.00  0.00    -0.047 A 
ATOM     19  C   UNL     1     -11.401  10.664 -32.332  0.00  0.00    +0.018 A 
ATOM     20  C   UNL     1     -11.185  11.648 -31.371  0.00  0.00    -0.047 A 
ATOM     21  C   UNL     1     -11.907  11.614 -30.176  0.00  0.00    -0.050 A 
ATOM     22 BR   UNL     1     -10.368  10.656 -33.915  0.00  0.00    -0.050 Br
ENDBRANCH  14  16
ENDBRANCH  13  14
ENDBRANCH  12  13
ENDBRANCH   1  12
TORSDOF 5
ENDMDL
