MODEL 1
REMARK VINA RESULT:    -8.256      0.000      0.000
REMARK INTER + INTRA:         -14.920
REMARK INTER:                 -12.117
REMARK INTRA:                  -2.803
REMARK UNBOUND:                -2.803
REMARK  Name = 21f.sdf
REMARK  8 active torsions:
REMARK  status: ('A' for Active; 'I' for Inactive)
REMARK    1  A    between atoms: N_7  and  C_22
REMARK    2  A    between atoms: C_9  and  C_10
REMARK    3  A    between atoms: C_10  and  O_11
REMARK    4  A    between atoms: O_11  and  C_12
REMARK    5  A    between atoms: C_12  and  C_13
REMARK    6  A    between atoms: C_13  and  C_14
REMARK    7  A    between atoms: C_22  and  C_23
REMARK    8  A    between atoms: C_23  and  C_24
REMARK                            x       y       z     vdW  Elec       q    Type
REMARK                         _______ _______ _______ _____ _____    ______ ____
ROOT
ATOM      1  C   UNL     1     -12.463  10.692 -32.533  0.00  0.00    -0.061 A 
ATOM      2  C   UNL     1     -12.122  11.869 -31.872  0.00  0.00    -0.060 A 
ATOM      3  C   UNL     1     -12.077  11.930 -30.473  0.00  0.00    -0.038 A 
ATOM      4  C   UNL     1     -12.357  10.758 -29.754  0.00  0.00    +0.050 A 
ATOM      5  C   UNL     1     -12.583   9.543 -30.405  0.00  0.00    +0.005 A 
ATOM      6  C   UNL     1     -12.678   9.519 -31.811  0.00  0.00    -0.052 A 
ATOM      7  N   UNL     1     -12.471  10.505 -28.400  0.00  0.00    -0.339 N 
ATOM      8  C   UNL     1     -12.525   9.149 -28.182  0.00  0.00    +0.012 A 
ATOM      9  C   UNL     1     -12.544   8.520 -29.411  0.00  0.00    +0.003 A 
ENDROOT
BRANCH   9  10
ATOM     10  C   UNL     1     -12.399   7.062 -29.685  0.00  0.00    +0.075 C 
BRANCH  10  11
ATOM     11  O   UNL     1     -11.335   6.463 -28.926  0.00  0.00    -0.367 OA
BRANCH  11  12
ATOM     12  C   UNL     1     -10.195   6.138 -29.719  0.00  0.00    +0.111 C 
BRANCH  12  13
ATOM     13  C   UNL     1      -9.191   7.282 -29.793  0.00  0.00    +0.189 C 
ATOM     14  O   UNL     1      -8.326   7.439 -28.930  0.00  0.00    -0.290 OA
BRANCH  13  15
ATOM     15  C   UNL     1      -9.197   8.180 -30.986  0.00  0.00    +0.020 A 
ATOM     16  C   UNL     1      -9.475   7.713 -32.276  0.00  0.00    -0.050 A 
ATOM     17  C   UNL     1      -9.423   8.585 -33.366  0.00  0.00    -0.047 A 
ATOM     18  C   UNL     1      -9.084   9.922 -33.170  0.00  0.00    +0.018 A 
ATOM     19  C   UNL     1      -8.811  10.402 -31.889  0.00  0.00    -0.047 A 
ATOM     20  C   UNL     1      -8.869   9.530 -30.800  0.00  0.00    -0.050 A 
ATOM     21 BR   UNL     1      -8.983  11.090 -34.651  0.00  0.00    -0.050 Br
ENDBRANCH  13  15
ENDBRANCH  12  13
ENDBRANCH  11  12
ENDBRANCH  10  11
ENDBRANCH   9  10
BRANCH   7  22
ATOM     22  C   UNL     1     -12.725  11.504 -27.366  0.00  0.00    +0.086 C 
BRANCH  22  23
ATOM     23  C   UNL     1     -14.184  11.744 -27.048  0.00  0.00    +0.183 C 
ATOM     24  O   UNL     1     -14.978  12.258 -27.832  0.00  0.00    -0.290 OA
BRANCH  23  25
ATOM     25  C   UNL     1     -14.678  11.315 -25.697  0.00  0.00    +0.019 A 
ATOM     26  C   UNL     1     -14.455  10.028 -25.184  0.00  0.00    -0.050 A 
ATOM     27  C   UNL     1     -15.004   9.653 -23.950  0.00  0.00    -0.047 A 
ATOM     28  C   UNL     1     -15.769  10.564 -23.225  0.00  0.00    +0.018 A 
ATOM     29  C   UNL     1     -15.962  11.858 -23.701  0.00  0.00    -0.047 A 
ATOM     30  C   UNL     1     -15.412  12.234 -24.931  0.00  0.00    -0.050 A 
ATOM     31 BR   UNL     1     -16.573  10.029 -21.600  0.00  0.00    -0.050 Br
ENDBRANCH  23  25
ENDBRANCH  22  23
ENDBRANCH   7  22
TORSDOF 8
ENDMDL
