MODEL 1
REMARK VINA RESULT:    -9.276      0.000      0.000
REMARK INTER + INTRA:         -13.266
REMARK INTER:                 -12.530
REMARK INTRA:                  -0.736
REMARK UNBOUND:                -0.736
REMARK  Name = 22a.sdf
REMARK  7 active torsions:
REMARK  status: ('A' for Active; 'I' for Inactive)
REMARK    1  A    between atoms: N_7  and  C_12
REMARK    2  A    between atoms: C_9  and  C_10
REMARK    3  A    between atoms: N_11  and  N_19
REMARK    4  A    between atoms: C_12  and  C_13
REMARK    5  A    between atoms: C_20  and  C_22
REMARK    6  A    between atoms: C_25  and  O_29
REMARK    7  A    between atoms: O_29  and  C_30
REMARK                            x       y       z     vdW  Elec       q    Type
REMARK                         _______ _______ _______ _____ _____    ______ ____
ROOT
ATOM      1  C   UNL     1     -12.344  12.964 -32.349  0.00  0.00    -0.061 A 
ATOM      2  C   UNL     1     -11.427  12.685 -33.355  0.00  0.00    -0.060 A 
ATOM      3  C   UNL     1     -10.399  11.759 -33.153  0.00  0.00    -0.038 A 
ATOM      4  C   UNL     1     -10.319  11.107 -31.911  0.00  0.00    +0.050 A 
ATOM      5  C   UNL     1     -11.262  11.337 -30.898  0.00  0.00    +0.009 A 
ATOM      6  C   UNL     1     -12.278  12.293 -31.124  0.00  0.00    -0.052 A 
ATOM      7  N   UNL     1      -9.407  10.196 -31.410  0.00  0.00    -0.342 N 
ATOM      8  C   UNL     1      -9.793   9.796 -30.154  0.00  0.00    +0.015 A 
ATOM      9  C   UNL     1     -10.945  10.473 -29.803  0.00  0.00    +0.020 A 
ENDROOT
BRANCH   9  10
ATOM     10  C   UNL     1     -11.676  10.323 -28.565  0.00  0.00    +0.055 C 
ATOM     11  N   UNL     1     -12.068  11.375 -27.916  0.00  0.00    -0.187 NA
BRANCH  11  12
ATOM     12  N   UNL     1     -12.745  11.146 -26.749  0.00  0.00    -0.203 N 
ATOM     13  C   UNL     1     -14.102  11.427 -26.686  0.00  0.00    +0.263 C 
ATOM     14  O   UNL     1     -14.779  11.862 -27.612  0.00  0.00    -0.268 OA
ATOM     15  H   UNL     1     -12.276  10.785 -25.962  0.00  0.00    +0.000 HD
BRANCH  13  16
ATOM     16  C   UNL     1     -14.773  11.124 -25.386  0.00  0.00    +0.039 A 
ATOM     17  C   UNL     1     -14.649   9.889 -24.743  0.00  0.00    -0.046 A 
ATOM     18  C   UNL     1     -15.316   9.665 -23.534  0.00  0.00    -0.019 A 
ATOM     19  C   UNL     1     -16.086  10.670 -22.941  0.00  0.00    +0.120 A 
ATOM     20  C   UNL     1     -16.193  11.909 -23.571  0.00  0.00    -0.019 A 
ATOM     21  C   UNL     1     -15.536  12.136 -24.787  0.00  0.00    -0.046 A 
BRANCH  19  22
ATOM     22  O   UNL     1     -16.721  10.308 -21.786  0.00  0.00    -0.495 OA
ATOM     23  C   UNL     1     -16.178   9.197 -21.085  0.00  0.00    +0.079 C 
ENDBRANCH  19  22
ENDBRANCH  13  16
ENDBRANCH  11  12
ENDBRANCH   9  10
BRANCH   7  24
ATOM     24  C   UNL     1      -8.157   9.784 -32.047  0.00  0.00    +0.048 C 
BRANCH  24  25
ATOM     25  C   UNL     1      -7.940   8.296 -31.940  0.00  0.00    -0.028 A 
ATOM     26  C   UNL     1      -8.791   7.401 -32.605  0.00  0.00    -0.056 A 
ATOM     27  C   UNL     1      -8.666   6.024 -32.411  0.00  0.00    -0.047 A 
ATOM     28  C   UNL     1      -7.678   5.533 -31.561  0.00  0.00    +0.018 A 
ATOM     29  C   UNL     1      -6.787   6.404 -30.938  0.00  0.00    -0.047 A 
ATOM     30  C   UNL     1      -6.917   7.781 -31.128  0.00  0.00    -0.056 A 
ATOM     31 BR   UNL     1      -7.571   3.677 -31.222  0.00  0.00    -0.050 Br
ENDBRANCH  24  25
ENDBRANCH   7  24
TORSDOF 6
ENDMDL
