MODEL 1
REMARK VINA RESULT:    -9.492      0.000      0.000
REMARK INTER + INTRA:         -13.589
REMARK INTER:                 -12.821
REMARK INTRA:                  -0.767
REMARK UNBOUND:                -0.767
REMARK  Name = 22c.sdf
REMARK  7 active torsions:
REMARK  status: ('A' for Active; 'I' for Inactive)
REMARK    1  A    between atoms: N_7  and  C_12
REMARK    2  A    between atoms: C_9  and  C_10
REMARK    3  A    between atoms: N_11  and  N_19
REMARK    4  A    between atoms: C_12  and  C_13
REMARK    5  A    between atoms: C_20  and  C_22
REMARK    6  A    between atoms: C_25  and  O_29
REMARK    7  A    between atoms: O_29  and  C_30
REMARK                            x       y       z     vdW  Elec       q    Type
REMARK                         _______ _______ _______ _____ _____    ______ ____
ROOT
ATOM      1  C   UNL     1     -12.291  13.015 -32.241  0.00  0.00    -0.061 A 
ATOM      2  C   UNL     1     -11.404  12.681 -33.253  0.00  0.00    -0.060 A 
ATOM      3  C   UNL     1     -10.427  11.692 -33.065  0.00  0.00    -0.038 A 
ATOM      4  C   UNL     1     -10.354  11.051 -31.815  0.00  0.00    +0.050 A 
ATOM      5  C   UNL     1     -11.285  11.329 -30.803  0.00  0.00    +0.009 A 
ATOM      6  C   UNL     1     -12.256  12.334 -31.021  0.00  0.00    -0.052 A 
ATOM      7  N   UNL     1      -9.470  10.116 -31.301  0.00  0.00    -0.342 N 
ATOM      8  C   UNL     1      -9.881   9.738 -30.045  0.00  0.00    +0.015 A 
ATOM      9  C   UNL     1     -11.015  10.449 -29.710  0.00  0.00    +0.020 A 
ENDROOT
BRANCH   9  10
ATOM     10  C   UNL     1     -11.771  10.323 -28.479  0.00  0.00    +0.055 C 
ATOM     11  N   UNL     1     -12.108  11.379 -27.817  0.00  0.00    -0.187 NA
BRANCH  11  12
ATOM     12  N   UNL     1     -12.811  11.168 -26.657  0.00  0.00    -0.203 N 
ATOM     13  C   UNL     1     -14.158  11.487 -26.611  0.00  0.00    +0.263 C 
ATOM     14  O   UNL     1     -14.812  11.942 -27.553  0.00  0.00    -0.268 OA
ATOM     15  H   UNL     1     -12.361  10.794 -25.866  0.00  0.00    +0.000 HD
BRANCH  13  16
ATOM     16  C   UNL     1     -14.861  11.212 -25.321  0.00  0.00    +0.039 A 
ATOM     17  C   UNL     1     -14.746   9.996 -24.640  0.00  0.00    -0.046 A 
ATOM     18  C   UNL     1     -15.452   9.795 -23.446  0.00  0.00    -0.019 A 
ATOM     19  C   UNL     1     -16.253  10.807 -22.906  0.00  0.00    +0.120 A 
ATOM     20  C   UNL     1     -16.349  12.029 -23.568  0.00  0.00    -0.019 A 
ATOM     21  C   UNL     1     -15.653  12.231 -24.767  0.00  0.00    -0.046 A 
BRANCH  19  22
ATOM     22  O   UNL     1     -16.935  10.465 -21.771  0.00  0.00    -0.495 OA
ATOM     23  C   UNL     1     -17.062   9.073 -21.502  0.00  0.00    +0.079 C 
ENDBRANCH  19  22
ENDBRANCH  13  16
ENDBRANCH  11  12
ENDBRANCH   9  10
BRANCH   7  24
ATOM     24  C   UNL     1      -8.200   9.680 -31.892  0.00  0.00    +0.048 C 
BRANCH  24  25
ATOM     25  C   UNL     1      -8.051   8.178 -31.870  0.00  0.00    -0.028 A 
ATOM     26  C   UNL     1      -8.895   7.372 -32.647  0.00  0.00    -0.055 A 
ATOM     27  C   UNL     1      -8.891   5.984 -32.492  0.00  0.00    -0.043 A 
ATOM     28  C   UNL     1      -8.020   5.392 -31.582  0.00  0.00    +0.041 A 
ATOM     29  C   UNL     1      -7.103   6.169 -30.878  0.00  0.00    -0.043 A 
ATOM     30  C   UNL     1      -7.116   7.559 -31.023  0.00  0.00    -0.055 A 
ATOM     31 CL   UNL     1      -8.110   3.699 -31.293  0.00  0.00    -0.084 Cl
ENDBRANCH  24  25
ENDBRANCH   7  24
TORSDOF 6
ENDMDL
