MODEL 1
REMARK VINA RESULT:    -8.795      0.000      0.000
REMARK INTER + INTRA:         -13.362
REMARK INTER:                 -12.394
REMARK INTRA:                  -0.968
REMARK UNBOUND:                -0.968
REMARK  Name = 23a.sdf
REMARK  9 active torsions:
REMARK  status: ('A' for Active; 'I' for Inactive)
REMARK    1  A    between atoms: N_7  and  C_12
REMARK    2  A    between atoms: C_9  and  C_10
REMARK    3  A    between atoms: N_11  and  N_19
REMARK    4  A    between atoms: C_12  and  C_13
REMARK    5  A    between atoms: C_20  and  C_22
REMARK    6  A    between atoms: C_24  and  O_30
REMARK    7  A    between atoms: C_25  and  O_29
REMARK    8  A    between atoms: O_29  and  C_32
REMARK    9  A    between atoms: O_30  and  C_31
REMARK                            x       y       z     vdW  Elec       q    Type
REMARK                         _______ _______ _______ _____ _____    ______ ____
ROOT
ATOM      1  C   UNL     1     -16.671  12.536 -23.599  0.00  0.00    -0.061 A 
ATOM      2  C   UNL     1     -16.951  11.728 -22.510  0.00  0.00    -0.060 A 
ATOM      3  C   UNL     1     -16.366  10.460 -22.394  0.00  0.00    -0.038 A 
ATOM      4  C   UNL     1     -15.584   9.954 -23.450  0.00  0.00    +0.050 A 
ATOM      5  C   UNL     1     -15.254  10.777 -24.541  0.00  0.00    +0.009 A 
ATOM      6  C   UNL     1     -15.792  12.091 -24.592  0.00  0.00    -0.052 A 
ATOM      7  N   UNL     1     -15.002   8.711 -23.676  0.00  0.00    -0.342 N 
ATOM      8  C   UNL     1     -14.257   8.778 -24.836  0.00  0.00    +0.015 A 
ATOM      9  C   UNL     1     -14.358  10.043 -25.385  0.00  0.00    +0.020 A 
ENDROOT
BRANCH   9  10
ATOM     10  C   UNL     1     -13.680  10.531 -26.575  0.00  0.00    +0.055 C 
ATOM     11  N   UNL     1     -13.670   9.815 -27.662  0.00  0.00    -0.187 NA
BRANCH  11  12
ATOM     12  N   UNL     1     -12.996  10.328 -28.740  0.00  0.00    -0.203 N 
ATOM     13  C   UNL     1     -12.608   9.484 -29.768  0.00  0.00    +0.263 C 
ATOM     14  O   UNL     1     -12.827   8.263 -29.800  0.00  0.00    -0.268 OA
ATOM     15  H   UNL     1     -12.787  11.289 -28.782  0.00  0.00    +0.000 HD
BRANCH  13  16
ATOM     16  C   UNL     1     -11.920  10.107 -30.932  0.00  0.00    +0.042 A 
ATOM     17  C   UNL     1     -10.710  10.794 -30.793  0.00  0.00    -0.004 A 
ATOM     18  C   UNL     1     -10.132  11.441 -31.895  0.00  0.00    +0.162 A 
ATOM     19  C   UNL     1     -10.742  11.351 -33.166  0.00  0.00    +0.162 A 
ATOM     20  C   UNL     1     -11.904  10.589 -33.314  0.00  0.00    -0.016 A 
ATOM     21  C   UNL     1     -12.496   9.984 -32.202  0.00  0.00    -0.046 A 
BRANCH  19  22
ATOM     22  O   UNL     1     -10.134  12.038 -34.189  0.00  0.00    -0.491 OA
ATOM     23  C   UNL     1      -9.551  11.277 -35.240  0.00  0.00    +0.079 C 
ENDBRANCH  19  22
BRANCH  18  24
ATOM     24  O   UNL     1      -8.977  12.184 -31.826  0.00  0.00    -0.491 OA
ATOM     25  C   UNL     1      -7.742  11.487 -31.915  0.00  0.00    +0.079 C 
ENDBRANCH  18  24
ENDBRANCH  13  16
ENDBRANCH  11  12
ENDBRANCH   9  10
BRANCH   7  26
ATOM     26  C   UNL     1     -15.218   7.441 -22.952  0.00  0.00    +0.048 C 
BRANCH  26  27
ATOM     27  C   UNL     1     -16.238   6.527 -23.600  0.00  0.00    -0.028 A 
ATOM     28  C   UNL     1     -17.591   6.597 -23.229  0.00  0.00    -0.056 A 
ATOM     29  C   UNL     1     -18.471   5.565 -23.569  0.00  0.00    -0.047 A 
ATOM     30  C   UNL     1     -18.025   4.507 -24.358  0.00  0.00    +0.018 A 
ATOM     31  C   UNL     1     -16.731   4.509 -24.874  0.00  0.00    -0.047 A 
ATOM     32  C   UNL     1     -15.837   5.514 -24.492  0.00  0.00    -0.056 A 
ATOM     33 BR   UNL     1     -19.137   3.001 -24.627  0.00  0.00    -0.050 Br
ENDBRANCH  26  27
ENDBRANCH   7  26
TORSDOF 7
ENDMDL
