MODEL 1
REMARK VINA RESULT:    -9.319      0.000      0.000
REMARK INTER + INTRA:         -14.153
REMARK INTER:                 -13.132
REMARK INTRA:                  -1.021
REMARK UNBOUND:                -1.021
REMARK  Name = 23c.sdf
REMARK  9 active torsions:
REMARK  status: ('A' for Active; 'I' for Inactive)
REMARK    1  A    between atoms: N_7  and  C_12
REMARK    2  A    between atoms: C_9  and  C_10
REMARK    3  A    between atoms: N_11  and  N_19
REMARK    4  A    between atoms: C_12  and  C_13
REMARK    5  A    between atoms: C_20  and  C_22
REMARK    6  A    between atoms: C_24  and  O_30
REMARK    7  A    between atoms: C_25  and  O_29
REMARK    8  A    between atoms: O_29  and  C_32
REMARK    9  A    between atoms: O_30  and  C_31
REMARK                            x       y       z     vdW  Elec       q    Type
REMARK                         _______ _______ _______ _____ _____    ______ ____
ROOT
ATOM      1  C   UNL     1     -16.946  12.686 -23.619  0.00  0.00    -0.061 A 
ATOM      2  C   UNL     1     -17.143  11.889 -22.498  0.00  0.00    -0.060 A 
ATOM      3  C   UNL     1     -16.511  10.647 -22.379  0.00  0.00    -0.038 A 
ATOM      4  C   UNL     1     -15.664  10.226 -23.419  0.00  0.00    +0.050 A 
ATOM      5  C   UNL     1     -15.417  11.033 -24.538  0.00  0.00    +0.009 A 
ATOM      6  C   UNL     1     -16.083  12.275 -24.638  0.00  0.00    -0.052 A 
ATOM      7  N   UNL     1     -14.951   9.055 -23.602  0.00  0.00    -0.342 N 
ATOM      8  C   UNL     1     -14.216   9.136 -24.759  0.00  0.00    +0.015 A 
ATOM      9  C   UNL     1     -14.470  10.350 -25.365  0.00  0.00    +0.020 A 
ENDROOT
BRANCH   9  10
ATOM     10  C   UNL     1     -13.881  10.824 -26.599  0.00  0.00    +0.055 C 
ATOM     11  N   UNL     1     -13.535   9.978 -27.513  0.00  0.00    -0.187 NA
BRANCH  11  12
ATOM     12  N   UNL     1     -12.981  10.512 -28.646  0.00  0.00    -0.203 N 
ATOM     13  C   UNL     1     -12.356   9.675 -29.562  0.00  0.00    +0.263 C 
ATOM     14  O   UNL     1     -12.267   8.455 -29.459  0.00  0.00    -0.268 OA
ATOM     15  H   UNL     1     -13.024  11.482 -28.810  0.00  0.00    +0.000 HD
BRANCH  13  16
ATOM     16  C   UNL     1     -11.805  10.337 -30.778  0.00  0.00    +0.042 A 
ATOM     17  C   UNL     1     -10.692  11.186 -30.725  0.00  0.00    -0.004 A 
ATOM     18  C   UNL     1     -10.229  11.812 -31.891  0.00  0.00    +0.162 A 
ATOM     19  C   UNL     1     -10.872  11.569 -33.124  0.00  0.00    +0.162 A 
ATOM     20  C   UNL     1     -11.956  10.686 -33.174  0.00  0.00    -0.016 A 
ATOM     21  C   UNL     1     -12.420  10.076 -32.006  0.00  0.00    -0.046 A 
BRANCH  19  22
ATOM     22  O   UNL     1     -10.366  12.238 -34.211  0.00  0.00    -0.491 OA
ATOM     23  C   UNL     1      -9.688  11.476 -35.200  0.00  0.00    +0.079 C 
ENDBRANCH  19  22
BRANCH  18  24
ATOM     24  O   UNL     1      -9.165  12.680 -31.931  0.00  0.00    -0.491 OA
ATOM     25  C   UNL     1      -7.856  12.130 -31.968  0.00  0.00    +0.079 C 
ENDBRANCH  18  24
ENDBRANCH  13  16
ENDBRANCH  11  12
ENDBRANCH   9  10
BRANCH   7  26
ATOM     26  C   UNL     1     -15.027   7.856 -22.769  0.00  0.00    +0.048 C 
BRANCH  26  27
ATOM     27  C   UNL     1     -15.985   6.841 -23.341  0.00  0.00    -0.028 A 
ATOM     28  C   UNL     1     -17.337   6.845 -22.966  0.00  0.00    -0.055 A 
ATOM     29  C   UNL     1     -18.198   5.839 -23.407  0.00  0.00    -0.043 A 
ATOM     30  C   UNL     1     -17.717   4.829 -24.236  0.00  0.00    +0.041 A 
ATOM     31  C   UNL     1     -16.390   4.838 -24.659  0.00  0.00    -0.043 A 
ATOM     32  C   UNL     1     -15.526   5.843 -24.214  0.00  0.00    -0.055 A 
ATOM     33 CL   UNL     1     -18.762   3.551 -24.721  0.00  0.00    -0.084 Cl
ENDBRANCH  26  27
ENDBRANCH   7  26
TORSDOF 7
ENDMDL
