MODEL 1
REMARK VINA RESULT:    -6.918      0.000      0.000
REMARK INTER + INTRA:          -7.904
REMARK INTER:                  -7.727
REMARK INTRA:                  -0.176
REMARK UNBOUND:                -0.176
REMARK  Name = 2.sdf
REMARK  2 active torsions:
REMARK  status: ('A' for Active; 'I' for Inactive)
REMARK    1  A    between atoms: C_9  and  C_10
REMARK    2  A    between atoms: C_11  and  C_12
REMARK                            x       y       z     vdW  Elec       q    Type
REMARK                         _______ _______ _______ _____ _____    ______ ____
ROOT
ATOM      1  C   UNL     1     -16.520  12.452 -23.253  0.00  0.00    -0.061 A 
ATOM      2  C   UNL     1     -15.696  12.677 -24.351  0.00  0.00    -0.060 A 
ATOM      3  C   UNL     1     -14.968  11.634 -24.925  0.00  0.00    -0.038 A 
ATOM      4  C   UNL     1     -15.096  10.359 -24.358  0.00  0.00    +0.047 A 
ATOM      5  C   UNL     1     -15.917  10.091 -23.258  0.00  0.00    +0.007 A 
ATOM      6  C   UNL     1     -16.636  11.172 -22.698  0.00  0.00    -0.052 A 
ATOM      7  N   UNL     1     -14.490   9.177 -24.713  0.00  0.00    -0.360 N 
ATOM      8  C   UNL     1     -14.879   8.170 -23.870  0.00  0.00    +0.010 A 
ATOM      9  C   UNL     1     -15.778   8.696 -22.966  0.00  0.00    +0.000 A 
ATOM     10  H   UNL     1     -13.864   9.069 -25.467  0.00  0.00    +0.000 HD
ENDROOT
BRANCH   9  11
ATOM     11  C   UNL     1     -16.378   7.896 -21.939  0.00  0.00    -0.046 C 
ATOM     12  C   UNL     1     -16.376   8.190 -20.629  0.00  0.00    +0.023 C 
BRANCH  12  13
ATOM     13  C   UNL     1     -16.966   7.431 -19.510  0.00  0.00    +0.330 C 
ATOM     14  O   UNL     1     -18.275   7.617 -19.274  0.00  0.00    -0.478 OA
ATOM     15  O   UNL     1     -16.284   6.671 -18.840  0.00  0.00    -0.246 OA
ENDBRANCH  12  13
ENDBRANCH   9  11
TORSDOF 2
ENDMDL
