MODEL 1
REMARK VINA RESULT:    -7.217      0.000      0.000
REMARK INTER + INTRA:         -10.462
REMARK INTER:                  -9.538
REMARK INTRA:                  -0.924
REMARK UNBOUND:                -0.924
REMARK  Name = 3a.sdf
REMARK  6 active torsions:
REMARK  status: ('A' for Active; 'I' for Inactive)
REMARK    1  A    between atoms: N_7  and  C_12
REMARK    2  A    between atoms: C_9  and  C_10
REMARK    3  A    between atoms: C_10  and  CA_11
REMARK    4  A    between atoms: CA_11  and  C_20
REMARK    5  A    between atoms: CA_11  and  N_23
REMARK    6  A    between atoms: C_12  and  C_13
REMARK                            x       y       z     vdW  Elec       q    Type
REMARK                         _______ _______ _______ _____ _____    ______ ____
ROOT
ATOM      1  C   UNL     1     -18.165   4.316 -24.874  0.00  0.00    -0.061 A 
ATOM      2  C   UNL     1     -18.425   5.360 -23.994  0.00  0.00    -0.060 A 
ATOM      3  C   UNL     1     -17.384   6.135 -23.473  0.00  0.00    -0.038 A 
ATOM      4  C   UNL     1     -16.069   5.848 -23.876  0.00  0.00    +0.050 A 
ATOM      5  C   UNL     1     -15.789   4.825 -24.790  0.00  0.00    +0.003 A 
ATOM      6  C   UNL     1     -16.856   4.041 -25.279  0.00  0.00    -0.052 A 
ATOM      7  N   UNL     1     -14.855   6.386 -23.502  0.00  0.00    -0.342 N 
ATOM      8  C   UNL     1     -13.852   5.858 -24.278  0.00  0.00    +0.009 A 
ATOM      9  C   UNL     1     -14.373   4.812 -25.011  0.00  0.00    -0.020 A 
ENDROOT
BRANCH   9  10
ATOM     10  C   UNL     1     -13.620   3.839 -25.868  0.00  0.00    -0.000 C 
BRANCH  10  11
ATOM     11  CA  UNL     1     -13.542   4.188 -27.366  0.00  0.00    +0.107 C 
BRANCH  11  12
ATOM     12  N   UNL     1     -13.592   2.932 -28.162  0.00  0.00    -0.318 N 
ATOM     13  H1  UNL     1     -13.131   2.184 -27.644  0.00  0.00    +0.000 HD
ATOM     14  H2  UNL     1     -13.114   3.074 -29.051  0.00  0.00    +0.000 HD
ATOM     15  H3  UNL     1     -14.565   2.677 -28.334  0.00  0.00    +0.000 HD
ENDBRANCH  11  12
BRANCH  11  16
ATOM     16  C   UNL     1     -12.289   5.032 -27.709  0.00  0.00    +0.322 C 
ATOM     17  O   UNL     1     -12.484   5.900 -28.732  0.00  0.00    -0.480 OA
ATOM     18  OXT UNL     1     -11.218   4.989 -27.115  0.00  0.00    -0.249 OA
ENDBRANCH  11  16
ENDBRANCH  10  11
ENDBRANCH   9  10
BRANCH   7  19
ATOM     19  C   UNL     1     -14.604   7.252 -22.352  0.00  0.00    +0.048 C 
BRANCH  19  20
ATOM     20  C   UNL     1     -15.101   8.655 -22.592  0.00  0.00    -0.028 A 
ATOM     21  C   UNL     1     -16.031   9.234 -21.717  0.00  0.00    -0.056 A 
ATOM     22  C   UNL     1     -16.592  10.478 -22.001  0.00  0.00    -0.047 A 
ATOM     23  C   UNL     1     -16.211  11.159 -23.155  0.00  0.00    +0.018 A 
ATOM     24  C   UNL     1     -15.242  10.628 -24.002  0.00  0.00    -0.047 A 
ATOM     25  C   UNL     1     -14.686   9.378 -23.720  0.00  0.00    -0.056 A 
ATOM     26 BR   UNL     1     -17.039  12.801 -23.587  0.00  0.00    -0.050 Br
ENDBRANCH  19  20
ENDBRANCH   7  19
TORSDOF 6
ENDMDL
