MODEL 1
REMARK VINA RESULT:    -6.970      0.000      0.000
REMARK INTER + INTRA:          -9.672
REMARK INTER:                  -9.007
REMARK INTRA:                  -0.665
REMARK UNBOUND:                -0.665
REMARK  Name = 5b.sdf
REMARK  6 active torsions:
REMARK  status: ('A' for Active; 'I' for Inactive)
REMARK    1  A    between atoms: N_7  and  C_12
REMARK    2  A    between atoms: C_9  and  C_10
REMARK    3  A    between atoms: C_11  and  C_19
REMARK    4  A    between atoms: C_12  and  C_13
REMARK    5  A    between atoms: C_19  and  O_20
REMARK    6  A    between atoms: O_20  and  C_22
REMARK                            x       y       z     vdW  Elec       q    Type
REMARK                         _______ _______ _______ _____ _____    ______ ____
ROOT
ATOM      1  C   UNL     1     -17.739   9.303 -20.613  0.00  0.00    -0.061 A 
ATOM      2  C   UNL     1     -17.668   7.948 -20.320  0.00  0.00    -0.060 A 
ATOM      3  C   UNL     1     -16.903   7.081 -21.106  0.00  0.00    -0.038 A 
ATOM      4  C   UNL     1     -16.197   7.616 -22.199  0.00  0.00    +0.050 A 
ATOM      5  C   UNL     1     -16.219   8.986 -22.488  0.00  0.00    +0.007 A 
ATOM      6  C   UNL     1     -17.016   9.833 -21.686  0.00  0.00    -0.052 A 
ATOM      7  N   UNL     1     -15.409   7.014 -23.163  0.00  0.00    -0.342 N 
ATOM      8  C   UNL     1     -14.880   7.972 -24.001  0.00  0.00    +0.013 A 
ATOM      9  C   UNL     1     -15.355   9.206 -23.606  0.00  0.00    +0.000 A 
ENDROOT
BRANCH   9  10
ATOM     10  C   UNL     1     -15.046  10.480 -24.195  0.00  0.00    -0.046 C 
ATOM     11  C   UNL     1     -14.654  10.684 -25.460  0.00  0.00    +0.023 C 
BRANCH  11  12
ATOM     12  C   UNL     1     -14.316  11.997 -26.054  0.00  0.00    +0.332 C 
ATOM     13  O   UNL     1     -14.309  13.018 -25.377  0.00  0.00    -0.246 OA
BRANCH  12  14
ATOM     14  O   UNL     1     -14.034  11.924 -27.376  0.00  0.00    -0.465 OA
ATOM     15  C   UNL     1     -12.678  11.561 -27.651  0.00  0.00    +0.082 C 
ENDBRANCH  12  14
ENDBRANCH  11  12
ENDBRANCH   9  10
BRANCH   7  16
ATOM     16  C   UNL     1     -15.255   5.574 -23.369  0.00  0.00    +0.048 C 
BRANCH  16  17
ATOM     17  C   UNL     1     -13.819   5.174 -23.577  0.00  0.00    -0.025 A 
ATOM     18  C   UNL     1     -12.939   5.059 -22.496  0.00  0.00    -0.039 A 
ATOM     19  C   UNL     1     -11.613   4.739 -22.743  0.00  0.00    +0.028 A 
ATOM     20  N   UNL     1     -11.113   4.511 -23.974  0.00  0.00    -0.263 NA
ATOM     21  C   UNL     1     -11.978   4.608 -25.005  0.00  0.00    +0.028 A 
ATOM     22  C   UNL     1     -13.319   4.927 -24.860  0.00  0.00    -0.039 A 
ENDBRANCH  16  17
ENDBRANCH   7  16
TORSDOF 5
ENDMDL
