MODEL 1
REMARK VINA RESULT:    -7.660      0.000      0.000
REMARK INTER + INTRA:         -10.738
REMARK INTER:                  -9.899
REMARK INTRA:                  -0.838
REMARK UNBOUND:                -0.838
REMARK  Name = 5c.sdf
REMARK  6 active torsions:
REMARK  status: ('A' for Active; 'I' for Inactive)
REMARK    1  A    between atoms: N_7  and  C_12
REMARK    2  A    between atoms: C_9  and  C_10
REMARK    3  A    between atoms: C_11  and  C_20
REMARK    4  A    between atoms: C_12  and  C_13
REMARK    5  A    between atoms: C_20  and  O_21
REMARK    6  A    between atoms: O_21  and  C_23
REMARK                            x       y       z     vdW  Elec       q    Type
REMARK                         _______ _______ _______ _____ _____    ______ ____
ROOT
ATOM      1  C   UNL     1     -16.960  12.548 -23.320  0.00  0.00    -0.061 A 
ATOM      2  C   UNL     1     -17.054  11.645 -22.268  0.00  0.00    -0.060 A 
ATOM      3  C   UNL     1     -16.369  10.426 -22.304  0.00  0.00    -0.038 A 
ATOM      4  C   UNL     1     -15.576  10.137 -23.429  0.00  0.00    +0.050 A 
ATOM      5  C   UNL     1     -15.435  11.049 -24.484  0.00  0.00    +0.007 A 
ATOM      6  C   UNL     1     -16.151  12.265 -24.423  0.00  0.00    -0.052 A 
ATOM      7  N   UNL     1     -14.829   9.021 -23.761  0.00  0.00    -0.342 N 
ATOM      8  C   UNL     1     -14.182   9.230 -24.959  0.00  0.00    +0.013 A 
ATOM      9  C   UNL     1     -14.526  10.479 -25.429  0.00  0.00    +0.000 A 
ENDROOT
BRANCH   9  10
ATOM     10  C   UNL     1     -14.062  11.096 -26.638  0.00  0.00    -0.046 C 
ATOM     11  C   UNL     1     -13.535  10.452 -27.692  0.00  0.00    +0.023 C 
BRANCH  11  12
ATOM     12  C   UNL     1     -13.044  11.093 -28.930  0.00  0.00    +0.332 C 
ATOM     13  O   UNL     1     -13.210  12.287 -29.138  0.00  0.00    -0.246 OA
BRANCH  12  14
ATOM     14  O   UNL     1     -12.415  10.226 -29.759  0.00  0.00    -0.465 OA
ATOM     15  C   UNL     1     -13.306   9.349 -30.453  0.00  0.00    +0.082 C 
ENDBRANCH  12  14
ENDBRANCH  11  12
ENDBRANCH   9  10
BRANCH   7  16
ATOM     16  C   UNL     1     -14.773   7.766 -23.010  0.00  0.00    +0.048 C 
BRANCH  16  17
ATOM     17  C   UNL     1     -15.839   6.803 -23.472  0.00  0.00    -0.028 A 
ATOM     18  C   UNL     1     -17.140   6.877 -22.950  0.00  0.00    -0.055 A 
ATOM     19  C   UNL     1     -18.082   5.893 -23.255  0.00  0.00    -0.043 A 
ATOM     20  C   UNL     1     -17.737   4.841 -24.098  0.00  0.00    +0.041 A 
ATOM     21  C   UNL     1     -16.472   4.790 -24.679  0.00  0.00    -0.043 A 
ATOM     22  C   UNL     1     -15.526   5.770 -24.370  0.00  0.00    -0.055 A 
ATOM     23 CL   UNL     1     -18.868   3.581 -24.399  0.00  0.00    -0.084 Cl
ENDBRANCH  16  17
ENDBRANCH   7  16
TORSDOF 5
ENDMDL
