MODEL 1
REMARK VINA RESULT:    -6.671      0.000      0.000
REMARK INTER + INTRA:          -9.236
REMARK INTER:                  -8.621
REMARK INTRA:                  -0.614
REMARK UNBOUND:                -0.614
REMARK  Name = 7b.sdf
REMARK  6 active torsions:
REMARK  status: ('A' for Active; 'I' for Inactive)
REMARK    1  A    between atoms: N_7  and  C_12
REMARK    2  A    between atoms: C_9  and  C_10
REMARK    3  A    between atoms: C_10  and  C_11
REMARK    4  A    between atoms: C_11  and  O_20
REMARK    5  A    between atoms: C_12  and  C_13
REMARK    6  A    between atoms: O_20  and  C_21
REMARK                            x       y       z     vdW  Elec       q    Type
REMARK                         _______ _______ _______ _____ _____    ______ ____
ROOT
ATOM      1  C   UNL     1     -17.076  11.581 -22.302  0.00  0.00    -0.061 A 
ATOM      2  C   UNL     1     -16.966  12.610 -23.232  0.00  0.00    -0.060 A 
ATOM      3  C   UNL     1     -16.141  12.481 -24.353  0.00  0.00    -0.038 A 
ATOM      4  C   UNL     1     -15.423  11.285 -24.515  0.00  0.00    +0.050 A 
ATOM      5  C   UNL     1     -15.550  10.220 -23.615  0.00  0.00    +0.004 A 
ATOM      6  C   UNL     1     -16.384  10.381 -22.489  0.00  0.00    -0.052 A 
ATOM      7  N   UNL     1     -14.515  10.889 -25.475  0.00  0.00    -0.342 N 
ATOM      8  C   UNL     1     -14.116   9.596 -25.244  0.00  0.00    +0.010 A 
ATOM      9  C   UNL     1     -14.749   9.139 -24.106  0.00  0.00    -0.012 A 
ENDROOT
BRANCH   9  10
ATOM     10  C   UNL     1     -14.608   7.777 -23.502  0.00  0.00    +0.072 C 
BRANCH  10  11
ATOM     11  C   UNL     1     -15.840   6.913 -23.686  0.00  0.00    +0.311 C 
ATOM     12  O   UNL     1     -16.942   7.083 -23.180  0.00  0.00    -0.250 OA
BRANCH  11  13
ATOM     13  O   UNL     1     -15.535   5.884 -24.537  0.00  0.00    -0.468 OA
ATOM     14  C   UNL     1     -14.154   5.518 -24.532  0.00  0.00    +0.082 C 
ENDBRANCH  11  13
ENDBRANCH  10  11
ENDBRANCH   9  10
BRANCH   7  15
ATOM     15  C   UNL     1     -13.970  11.729 -26.540  0.00  0.00    +0.048 C 
BRANCH  15  16
ATOM     16  C   UNL     1     -13.420  10.975 -27.727  0.00  0.00    -0.025 A 
ATOM     17  C   UNL     1     -12.056  10.852 -28.010  0.00  0.00    -0.039 A 
ATOM     18  C   UNL     1     -11.667  10.160 -29.147  0.00  0.00    +0.028 A 
ATOM     19  N   UNL     1     -12.527   9.570 -30.002  0.00  0.00    -0.263 NA
ATOM     20  C   UNL     1     -13.838   9.677 -29.707  0.00  0.00    +0.028 A 
ATOM     21  C   UNL     1     -14.325  10.354 -28.599  0.00  0.00    -0.039 A 
ENDBRANCH  15  16
ENDBRANCH   7  15
TORSDOF 5
ENDMDL
