MODEL 1
REMARK VINA RESULT:    -8.470      0.000      0.000
REMARK INTER + INTRA:         -10.318
REMARK INTER:                  -9.955
REMARK INTRA:                  -0.363
REMARK UNBOUND:                -0.363
REMARK  Name = 8.sdf
REMARK  3 active torsions:
REMARK  status: ('A' for Active; 'I' for Inactive)
REMARK    1  A    between atoms: C_9  and  C_10
REMARK    2  A    between atoms: N_11  and  N_12
REMARK    3  A    between atoms: C_13  and  C_15
REMARK                            x       y       z     vdW  Elec       q    Type
REMARK                         _______ _______ _______ _____ _____    ______ ____
ROOT
ATOM      1  C   UNL     1     -14.595  12.061 -25.364  0.00  0.00    +0.055 C 
ATOM      2  N   UNL     1     -14.835  11.502 -26.505  0.00  0.00    -0.187 NA
ENDROOT
BRANCH   1  11
ATOM      3  C   UNL     1     -15.408   8.284 -22.678  0.00  0.00    -0.061 A 
ATOM      4  C   UNL     1     -16.380   8.535 -21.713  0.00  0.00    -0.060 A 
ATOM      5  C   UNL     1     -17.001   9.782 -21.629  0.00  0.00    -0.038 A 
ATOM      6  C   UNL     1     -16.606  10.768 -22.541  0.00  0.00    +0.047 A 
ATOM      7  C   UNL     1     -15.632  10.554 -23.520  0.00  0.00    +0.008 A 
ATOM      8  C   UNL     1     -15.026   9.281 -23.587  0.00  0.00    -0.052 A 
ATOM      9  N   UNL     1     -17.042  12.066 -22.678  0.00  0.00    -0.360 N 
ATOM     10  C   UNL     1     -16.375  12.679 -23.698  0.00  0.00    +0.011 A 
ATOM     11  C   UNL     1     -15.486  11.776 -24.255  0.00  0.00    +0.020 A 
ATOM     12  H   UNL     1     -17.735  12.489 -22.121  0.00  0.00    +0.000 HD
ENDBRANCH   1  11
BRANCH   2  13
ATOM     13  N   UNL     1     -13.995  11.782 -27.544  0.00  0.00    -0.203 N 
ATOM     14  C   UNL     1     -13.245  10.741 -28.078  0.00  0.00    +0.263 C 
ATOM     15  O   UNL     1     -13.291   9.575 -27.694  0.00  0.00    -0.268 OA
ATOM     16  H   UNL     1     -13.922  12.695 -27.904  0.00  0.00    +0.000 HD
BRANCH  14  17
ATOM     17  C   UNL     1     -12.341  11.076 -29.215  0.00  0.00    +0.038 A 
ATOM     18  C   UNL     1     -11.184  10.341 -29.503  0.00  0.00    -0.049 A 
ATOM     19  C   UNL     1     -10.403  10.676 -30.617  0.00  0.00    -0.047 A 
ATOM     20  C   UNL     1     -10.778  11.737 -31.440  0.00  0.00    +0.018 A 
ATOM     21  C   UNL     1     -11.931  12.471 -31.167  0.00  0.00    -0.047 A 
ATOM     22  C   UNL     1     -12.712  12.136 -30.058  0.00  0.00    -0.049 A 
ATOM     23 BR   UNL     1      -9.731  12.168 -32.953  0.00  0.00    -0.050 Br
ENDBRANCH  14  17
ENDBRANCH   2  13
TORSDOF 3
ENDMDL
