MODEL 1
REMARK VINA RESULT:    -9.735      0.000      0.000
REMARK INTER + INTRA:         -12.520
REMARK INTER:                 -12.011
REMARK INTRA:                  -0.509
REMARK UNBOUND:                -0.509
REMARK  Name = native.pdb
REMARK  4 active torsions:
REMARK  status: ('A' for Active; 'I' for Inactive)
REMARK    1  A    between atoms: C_2  and  C_3
REMARK    2  A    between atoms: N_15  and  C_16
REMARK    3  A    between atoms: C_19  and  O_22
REMARK    4  A    between atoms: O_22  and  C_23
REMARK                            x       y       z     vdW  Elec       q    Type
REMARK                         _______ _______ _______ _____ _____    ______ ____
ROOT
ATOM      1  O   UNL     1     -15.079  11.532 -27.897  0.00  0.00    -0.270 OA
ATOM      2  C   UNL     1     -14.214  11.458 -27.028  0.00  0.00    +0.248 C 
ATOM      3  N   UNL     1     -12.853  11.290 -27.232  0.00  0.00    -0.281 N 
ATOM      4  H   UNL     1     -12.279  11.284 -26.432  0.00  0.00    +0.000 HD
ENDROOT
BRANCH   2   5
ATOM      5  C   UNL     1     -14.675  11.517 -25.616  0.00  0.00    +0.042 A 
ATOM      6  C   UNL     1     -14.722  10.312 -24.903  0.00  0.00    -0.010 A 
ATOM      7  C   UNL     1     -15.123  10.291 -23.578  0.00  0.00    +0.122 A 
ATOM      8  N   UNL     1     -15.122   9.125 -22.850  0.00  0.00    -0.311 N 
ATOM      9  C   UNL     1     -15.489   7.823 -23.418  0.00  0.00    +0.037 C 
ATOM     10  C   UNL     1     -16.706   7.234 -22.683  0.00  0.00    +0.063 C 
ATOM     11  O   UNL     1     -16.514   7.204 -21.259  0.00  0.00    -0.377 OA
ATOM     12  C   UNL     1     -16.305   8.537 -20.764  0.00  0.00    +0.063 C 
ATOM     13  C   UNL     1     -15.057   9.173 -21.385  0.00  0.00    +0.037 C 
ATOM     14  N   UNL     1     -15.473  11.446 -22.968  0.00  0.00    -0.240 NA
ATOM     15  C   UNL     1     -15.458  12.599 -23.673  0.00  0.00    +0.030 A 
ATOM     16  C   UNL     1     -15.072  12.692 -24.994  0.00  0.00    -0.031 A 
ENDBRANCH   2   5
BRANCH   3  17
ATOM     17  C   UNL     1     -12.212  11.126 -28.484  0.00  0.00    +0.034 A 
ATOM     18  C   UNL     1     -11.261  10.136 -28.730  0.00  0.00    -0.037 A 
ATOM     19  C   UNL     1     -10.623  10.048 -29.968  0.00  0.00    -0.018 A 
ATOM     20  C   UNL     1     -10.988  10.897 -31.012  0.00  0.00    +0.129 A 
ATOM     21  C   UNL     1     -11.923  11.904 -30.774  0.00  0.00    -0.018 A 
ATOM     22  C   UNL     1     -12.530  12.021 -29.515  0.00  0.00    -0.037 A 
BRANCH  20  23
ATOM     23  O   UNL     1     -10.447  10.833 -32.279  0.00  0.00    -0.456 OA
BRANCH  23  24
ATOM     24  C   UNL     1      -9.078  10.915 -32.423  0.00  0.00    +0.131 A 
ATOM     25  C   UNL     1      -8.286   9.853 -32.855  0.00  0.00    -0.001 A 
ATOM     26  C   UNL     1      -6.916  10.040 -32.896  0.00  0.00    +0.031 A 
ATOM     27  N   UNL     1      -6.310  11.209 -32.604  0.00  0.00    -0.263 NA
ATOM     28  C   UNL     1      -7.112  12.240 -32.257  0.00  0.00    +0.031 A 
ATOM     29  C   UNL     1      -8.489  12.145 -32.153  0.00  0.00    -0.001 A 
ENDBRANCH  23  24
ENDBRANCH  20  23
ENDBRANCH   3  17
TORSDOF 4
ENDMDL
