MODEL 1
REMARK VINA RESULT:    -5.926      0.000      0.000
REMARK INTER + INTRA:          -5.926
REMARK INTER:                  -5.926
REMARK INTRA:                   0.000
REMARK UNBOUND:                 0.000
REMARK  Name = 0.sdf
REMARK  0 active torsions:
REMARK  status: ('A' for Active; 'I' for Inactive)
REMARK                            x       y       z     vdW  Elec       q    Type
REMARK                         _______ _______ _______ _____ _____    ______ ____
ROOT
ATOM      1  C   UNL     1      47.210  29.446   9.667  0.00  0.00    -0.061 A 
ATOM      2  C   UNL     1      47.203  29.249   8.288  0.00  0.00    -0.060 A 
ATOM      3  C   UNL     1      47.860  28.156   7.711  0.00  0.00    -0.038 A 
ATOM      4  C   UNL     1      48.527  27.275   8.571  0.00  0.00    +0.046 A 
ATOM      5  C   UNL     1      48.552  27.449   9.955  0.00  0.00    -0.000 A 
ATOM      6  C   UNL     1      47.878  28.553  10.513  0.00  0.00    -0.053 A 
ATOM      7  N   UNL     1      49.251  26.137   8.293  0.00  0.00    -0.361 N 
ATOM      8  C   UNL     1      49.740  25.592   9.451  0.00  0.00    +0.003 A 
ATOM      9  C   UNL     1      49.319  26.380  10.497  0.00  0.00    -0.037 A 
ATOM     10  H   UNL     1      49.396  25.770   7.392  0.00  0.00    +0.000 HD
ENDROOT
TORSDOF 0
ENDMDL
