MODEL 1
REMARK VINA RESULT:    -8.720      0.000      0.000
REMARK INTER + INTRA:         -10.047
REMARK INTER:                  -9.739
REMARK INTRA:                  -0.307
REMARK UNBOUND:                -0.307
REMARK  Name = 0a.sdf
REMARK  2 active torsions:
REMARK  status: ('A' for Active; 'I' for Inactive)
REMARK    1  A    between atoms: N_7  and  C_10
REMARK    2  A    between atoms: C_10  and  C_11
REMARK                            x       y       z     vdW  Elec       q    Type
REMARK                         _______ _______ _______ _____ _____    ______ ____
ROOT
ATOM      1  C   UNL     1      45.624  20.139   7.689  0.00  0.00    -0.061 A 
ATOM      2  C   UNL     1      46.408  20.726   6.703  0.00  0.00    -0.060 A 
ATOM      3  C   UNL     1      47.378  21.684   7.033  0.00  0.00    -0.038 A 
ATOM      4  C   UNL     1      47.545  22.034   8.382  0.00  0.00    +0.049 A 
ATOM      5  C   UNL     1      46.785  21.421   9.388  0.00  0.00    -0.000 A 
ATOM      6  C   UNL     1      45.811  20.466   9.032  0.00  0.00    -0.053 A 
ATOM      7  N   UNL     1      48.355  22.968   9.010  0.00  0.00    -0.342 N 
ATOM      8  C   UNL     1      48.189  22.889  10.373  0.00  0.00    +0.006 A 
ATOM      9  C   UNL     1      47.221  21.946  10.633  0.00  0.00    -0.036 A 
ENDROOT
BRANCH   7  10
ATOM     10  C   UNL     1      49.161  24.002   8.361  0.00  0.00    +0.048 C 
BRANCH  10  11
ATOM     11  C   UNL     1      48.886  25.371   8.928  0.00  0.00    -0.028 A 
ATOM     12  C   UNL     1      47.572  25.854   9.006  0.00  0.00    -0.056 A 
ATOM     13  C   UNL     1      47.320  27.169   9.396  0.00  0.00    -0.047 A 
ATOM     14  C   UNL     1      48.382  28.006   9.729  0.00  0.00    +0.018 A 
ATOM     15  C   UNL     1      49.688  27.523   9.731  0.00  0.00    -0.047 A 
ATOM     16  C   UNL     1      49.940  26.207   9.335  0.00  0.00    -0.056 A 
ATOM     17 BR   UNL     1      48.051  29.823  10.133  0.00  0.00    -0.050 Br
ENDBRANCH  10  11
ENDBRANCH   7  10
TORSDOF 2
ENDMDL
