MODEL 1
REMARK VINA RESULT:    -7.812      0.000      0.000
REMARK INTER + INTRA:          -8.999
REMARK INTER:                  -8.726
REMARK INTRA:                  -0.273
REMARK UNBOUND:                -0.273
REMARK  Name = 0b.sdf
REMARK  2 active torsions:
REMARK  status: ('A' for Active; 'I' for Inactive)
REMARK    1  A    between atoms: N_7  and  C_10
REMARK    2  A    between atoms: C_10  and  C_11
REMARK                            x       y       z     vdW  Elec       q    Type
REMARK                         _______ _______ _______ _____ _____    ______ ____
ROOT
ATOM      1  C   UNL     1      45.727  20.455   8.074  0.00  0.00    -0.061 A 
ATOM      2  C   UNL     1      46.383  21.056   7.004  0.00  0.00    -0.060 A 
ATOM      3  C   UNL     1      47.355  22.040   7.214  0.00  0.00    -0.038 A 
ATOM      4  C   UNL     1      47.660  22.401   8.538  0.00  0.00    +0.049 A 
ATOM      5  C   UNL     1      47.030  21.788   9.627  0.00  0.00    -0.000 A 
ATOM      6  C   UNL     1      46.044  20.809   9.389  0.00  0.00    -0.053 A 
ATOM      7  N   UNL     1      48.530  23.343   9.057  0.00  0.00    -0.342 N 
ATOM      8  C   UNL     1      48.500  23.300  10.432  0.00  0.00    +0.006 A 
ATOM      9  C   UNL     1      47.580  22.351  10.808  0.00  0.00    -0.036 A 
ENDROOT
BRANCH   7  10
ATOM     10  C   UNL     1      49.270  24.342   8.294  0.00  0.00    +0.048 C 
BRANCH  10  11
ATOM     11  C   UNL     1      49.035  25.741   8.797  0.00  0.00    -0.025 A 
ATOM     12  C   UNL     1      47.742  26.202   9.062  0.00  0.00    -0.039 A 
ATOM     13  C   UNL     1      47.574  27.499   9.518  0.00  0.00    +0.028 A 
ATOM     14  N   UNL     1      48.594  28.355   9.735  0.00  0.00    -0.263 NA
ATOM     15  C   UNL     1      49.836  27.897   9.472  0.00  0.00    +0.028 A 
ATOM     16  C   UNL     1      50.105  26.619   9.011  0.00  0.00    -0.039 A 
ENDBRANCH  10  11
ENDBRANCH   7  10
TORSDOF 2
ENDMDL
