MODEL 1
REMARK VINA RESULT:    -8.097      0.000      0.000
REMARK INTER + INTRA:         -11.004
REMARK INTER:                 -10.463
REMARK INTRA:                  -0.541
REMARK UNBOUND:                -0.541
REMARK  Name = 15.sdf
REMARK  6 active torsions:
REMARK  status: ('A' for Active; 'I' for Inactive)
REMARK    1  A    between atoms: C_9  and  C_10
REMARK    2  A    between atoms: C_10  and  O_11
REMARK    3  A    between atoms: O_11  and  C_12
REMARK    4  A    between atoms: C_12  and  C_13
REMARK    5  A    between atoms: C_13  and  C_15
REMARK    6  A    between atoms: C_16  and  C_17
REMARK                            x       y       z     vdW  Elec       q    Type
REMARK                         _______ _______ _______ _____ _____    ______ ____
ROOT
ATOM      1  C   UNL     1      46.867  20.780   6.118  0.00  0.00    -0.061 A 
ATOM      2  C   UNL     1      46.197  19.858   6.918  0.00  0.00    -0.060 A 
ATOM      3  C   UNL     1      46.154  20.008   8.308  0.00  0.00    -0.038 A 
ATOM      4  C   UNL     1      46.807  21.115   8.861  0.00  0.00    +0.047 A 
ATOM      5  C   UNL     1      47.488  22.055   8.088  0.00  0.00    +0.006 A 
ATOM      6  C   UNL     1      47.515  21.882   6.688  0.00  0.00    -0.052 A 
ATOM      7  N   UNL     1      46.930  21.507  10.173  0.00  0.00    -0.360 N 
ATOM      8  C   UNL     1      47.661  22.660  10.256  0.00  0.00    +0.009 A 
ATOM      9  C   UNL     1      48.038  23.033   8.979  0.00  0.00    +0.015 A 
ATOM     10  H   UNL     1      46.546  21.027  10.943  0.00  0.00    +0.000 HD
ENDROOT
BRANCH   9  11
ATOM     11  C   UNL     1      48.855  24.227   8.608  0.00  0.00    +0.120 C 
BRANCH  11  12
ATOM     12  O   UNL     1      48.212  25.464   8.956  0.00  0.00    -0.456 OA
BRANCH  12  13
ATOM     13  C   UNL     1      48.967  26.323   9.687  0.00  0.00    +0.339 C 
ATOM     14  O   UNL     1      49.251  26.188  10.871  0.00  0.00    -0.245 OA
BRANCH  13  15
ATOM     15  C   UNL     1      49.405  27.514   8.873  0.00  0.00    +0.052 C 
ATOM     16  C   UNL     1      50.674  27.953   8.907  0.00  0.00    -0.085 C 
BRANCH  15  17
ATOM     17  C   UNL     1      48.440  28.071   7.933  0.00  0.00    -0.053 C 
ATOM     18  C   UNL     1      47.388  28.872   8.165  0.00  0.00    -0.086 C 
ATOM     19  C   UNL     1      46.875  29.408   9.461  0.00  0.00    -0.047 C 
ENDBRANCH  15  17
ENDBRANCH  13  15
ENDBRANCH  12  13
ENDBRANCH  11  12
ENDBRANCH   9  11
TORSDOF 5
ENDMDL
