MODEL 1
REMARK VINA RESULT:    -8.514      0.000      0.000
REMARK INTER + INTRA:         -10.811
REMARK INTER:                 -10.505
REMARK INTRA:                  -0.306
REMARK UNBOUND:                -0.306
REMARK  Name = 16.sdf
REMARK  4 active torsions:
REMARK  status: ('A' for Active; 'I' for Inactive)
REMARK    1  A    between atoms: C_9  and  C_10
REMARK    2  A    between atoms: C_10  and  O_11
REMARK    3  A    between atoms: O_11  and  C_12
REMARK    4  A    between atoms: C_12  and  C_13
REMARK                            x       y       z     vdW  Elec       q    Type
REMARK                         _______ _______ _______ _____ _____    ______ ____
ROOT
ATOM      1  C   UNL     1      46.127  17.265   7.082  0.00  0.00    -0.061 A 
ATOM      2  C   UNL     1      46.065  17.480   5.708  0.00  0.00    -0.060 A 
ATOM      3  C   UNL     1      46.193  18.766   5.176  0.00  0.00    -0.038 A 
ATOM      4  C   UNL     1      46.385  19.823   6.073  0.00  0.00    +0.047 A 
ATOM      5  C   UNL     1      46.457  19.644   7.456  0.00  0.00    +0.005 A 
ATOM      6  C   UNL     1      46.322  18.334   7.965  0.00  0.00    -0.052 A 
ATOM      7  N   UNL     1      46.537  21.167   5.831  0.00  0.00    -0.360 N 
ATOM      8  C   UNL     1      46.697  21.844   7.008  0.00  0.00    +0.008 A 
ATOM      9  C   UNL     1      46.667  20.934   8.048  0.00  0.00    +0.003 A 
ATOM     10  H   UNL     1      46.531  21.584   4.939  0.00  0.00    +0.000 HD
ENDROOT
BRANCH   9  11
ATOM     11  C   UNL     1      46.811  21.245   9.505  0.00  0.00    +0.075 C 
BRANCH  11  12
ATOM     12  O   UNL     1      46.928  22.653   9.722  0.00  0.00    -0.371 OA
BRANCH  12  13
ATOM     13  C   UNL     1      48.284  23.061   9.885  0.00  0.00    +0.073 C 
BRANCH  13  14
ATOM     14  C   UNL     1      48.386  24.568   9.813  0.00  0.00    -0.022 A 
ATOM     15  C   UNL     1      47.390  25.310   9.159  0.00  0.00    -0.055 A 
ATOM     16  C   UNL     1      47.460  26.705   9.106  0.00  0.00    -0.043 A 
ATOM     17  C   UNL     1      48.521  27.370   9.718  0.00  0.00    +0.041 A 
ATOM     18  C   UNL     1      49.507  26.652  10.389  0.00  0.00    -0.043 A 
ATOM     19  C   UNL     1      49.436  25.258  10.441  0.00  0.00    -0.055 A 
ATOM     20 CL   UNL     1      48.609  29.087   9.648  0.00  0.00    -0.084 Cl
ENDBRANCH  13  14
ENDBRANCH  12  13
ENDBRANCH  11  12
ENDBRANCH   9  11
TORSDOF 4
ENDMDL
