MODEL 1
REMARK VINA RESULT:    -9.835      0.000      0.000
REMARK INTER + INTRA:         -14.364
REMARK INTER:                 -13.284
REMARK INTRA:                  -1.080
REMARK UNBOUND:                -1.080
REMARK  Name = 16c.sdf
REMARK  6 active torsions:
REMARK  status: ('A' for Active; 'I' for Inactive)
REMARK    1  A    between atoms: N_7  and  C_11
REMARK    2  A    between atoms: C_9  and  C_10
REMARK    3  A    between atoms: C_10  and  O_19
REMARK    4  A    between atoms: C_11  and  C_12
REMARK    5  A    between atoms: O_19  and  C_20
REMARK    6  A    between atoms: C_20  and  C_21
REMARK                            x       y       z     vdW  Elec       q    Type
REMARK                         _______ _______ _______ _____ _____    ______ ____
ROOT
ATOM      1  C   UNL     1      45.436  20.766  10.359  0.00  0.00    -0.061 A 
ATOM      2  C   UNL     1      46.132  21.591  11.240  0.00  0.00    -0.060 A 
ATOM      3  C   UNL     1      47.165  22.421  10.787  0.00  0.00    -0.038 A 
ATOM      4  C   UNL     1      47.481  22.407   9.418  0.00  0.00    +0.050 A 
ATOM      5  C   UNL     1      46.767  21.616   8.513  0.00  0.00    +0.005 A 
ATOM      6  C   UNL     1      45.737  20.782   8.995  0.00  0.00    -0.052 A 
ATOM      7  N   UNL     1      48.447  23.075   8.689  0.00  0.00    -0.342 N 
ATOM      8  C   UNL     1      48.309  22.784   7.353  0.00  0.00    +0.011 A 
ATOM      9  C   UNL     1      47.263  21.894   7.204  0.00  0.00    +0.003 A 
ENDROOT
BRANCH   9  10
ATOM     10  C   UNL     1      46.707  21.367   5.921  0.00  0.00    +0.075 C 
BRANCH  10  11
ATOM     11  O   UNL     1      47.246  20.089   5.562  0.00  0.00    -0.371 OA
BRANCH  11  12
ATOM     12  C   UNL     1      46.253  19.198   5.066  0.00  0.00    +0.073 C 
BRANCH  12  13
ATOM     13  C   UNL     1      46.269  17.952   5.911  0.00  0.00    -0.022 A 
ATOM     14  C   UNL     1      46.132  18.038   7.304  0.00  0.00    -0.055 A 
ATOM     15  C   UNL     1      46.152  16.885   8.089  0.00  0.00    -0.043 A 
ATOM     16  C   UNL     1      46.322  15.642   7.485  0.00  0.00    +0.041 A 
ATOM     17  C   UNL     1      46.472  15.543   6.101  0.00  0.00    -0.043 A 
ATOM     18  C   UNL     1      46.455  16.695   5.320  0.00  0.00    -0.055 A 
ATOM     19 CL   UNL     1      46.349  14.218   8.452  0.00  0.00    -0.084 Cl
ENDBRANCH  12  13
ENDBRANCH  11  12
ENDBRANCH  10  11
ENDBRANCH   9  10
BRANCH   7  20
ATOM     20  C   UNL     1      49.520  23.907   9.229  0.00  0.00    +0.048 C 
BRANCH  20  21
ATOM     21  C   UNL     1      49.174  25.375   9.171  0.00  0.00    -0.028 A 
ATOM     22  C   UNL     1      50.177  26.333   8.957  0.00  0.00    -0.055 A 
ATOM     23  C   UNL     1      49.878  27.697   8.996  0.00  0.00    -0.043 A 
ATOM     24  C   UNL     1      48.570  28.111   9.237  0.00  0.00    +0.041 A 
ATOM     25  C   UNL     1      47.554  27.175   9.407  0.00  0.00    -0.043 A 
ATOM     26  C   UNL     1      47.854  25.811   9.371  0.00  0.00    -0.055 A 
ATOM     27 CL   UNL     1      48.214  29.791   9.345  0.00  0.00    -0.084 Cl
ENDBRANCH  20  21
ENDBRANCH   7  20
TORSDOF 6
ENDMDL
