MODEL 1
REMARK VINA RESULT:    -7.150      0.000      0.000
REMARK INTER + INTRA:          -8.182
REMARK INTER:                  -7.986
REMARK INTRA:                  -0.196
REMARK UNBOUND:                -0.196
REMARK  Name = 17.sdf
REMARK  2 active torsions:
REMARK  status: ('A' for Active; 'I' for Inactive)
REMARK    1  A    between atoms: C_9  and  C_10
REMARK    2  A    between atoms: N_11  and  N_12
REMARK                            x       y       z     vdW  Elec       q    Type
REMARK                         _______ _______ _______ _____ _____    ______ ____
ROOT
ATOM      1  C   UNL     1      47.291  28.778   9.618  0.00  0.00    -0.061 A 
ATOM      2  C   UNL     1      48.487  29.452   9.383  0.00  0.00    -0.060 A 
ATOM      3  C   UNL     1      49.637  28.763   8.991  0.00  0.00    -0.038 A 
ATOM      4  C   UNL     1      49.544  27.374   8.852  0.00  0.00    +0.047 A 
ATOM      5  C   UNL     1      48.361  26.667   9.082  0.00  0.00    +0.008 A 
ATOM      6  C   UNL     1      47.213  27.389   9.469  0.00  0.00    -0.052 A 
ATOM      7  N   UNL     1      50.504  26.459   8.492  0.00  0.00    -0.360 N 
ATOM      8  C   UNL     1      49.975  25.201   8.496  0.00  0.00    +0.011 A 
ATOM      9  C   UNL     1      48.641  25.283   8.854  0.00  0.00    +0.020 A 
ATOM     10  H   UNL     1      51.437  26.679   8.265  0.00  0.00    +0.000 HD
ENDROOT
BRANCH   9  11
ATOM     11  C   UNL     1      47.741  24.156   8.968  0.00  0.00    +0.055 C 
ATOM     12  N   UNL     1      48.147  23.027   8.490  0.00  0.00    -0.186 NA
BRANCH  12  13
ATOM     13  N   UNL     1      47.301  21.964   8.595  0.00  0.00    -0.191 N 
ATOM     14  C   UNL     1      46.962  21.235   7.480  0.00  0.00    +0.317 C 
ATOM     15  O   UNL     1      46.213  20.266   7.509  0.00  0.00    -0.251 OA
ATOM     16  N   UNL     1      47.527  21.686   6.332  0.00  0.00    -0.312 N 
ATOM     17  H   UNL     1      46.931  21.717   9.474  0.00  0.00    +0.000 HD
ATOM     18  H   UNL     1      48.123  22.470   6.352  0.00  0.00    +0.000 HD
ATOM     19  H   UNL     1      47.342  21.230   5.480  0.00  0.00    +0.000 HD
ENDBRANCH  12  13
ENDBRANCH   9  11
TORSDOF 2
ENDMDL
