MODEL 1
REMARK VINA RESULT:    -7.248      0.000      0.000
REMARK INTER + INTRA:          -8.289
REMARK INTER:                  -8.095
REMARK INTRA:                  -0.194
REMARK UNBOUND:                -0.194
REMARK  Name = 17e.sdf
REMARK  3 active torsions:
REMARK  status: ('A' for Active; 'I' for Inactive)
REMARK    1  A    between atoms: C_9  and  C_10
REMARK    2  A    between atoms: N_11  and  N_12
REMARK    3  A    between atoms: C_16  and  C_17
REMARK                            x       y       z     vdW  Elec       q    Type
REMARK                         _______ _______ _______ _____ _____    ______ ____
ROOT
ATOM      1  C   UNL     1      46.325  19.383   4.570  0.00  0.00    -0.061 A 
ATOM      2  C   UNL     1      46.894  20.647   4.547  0.00  0.00    -0.060 A 
ATOM      3  C   UNL     1      47.174  21.326   5.736  0.00  0.00    -0.037 A 
ATOM      4  C   UNL     1      46.869  20.708   6.967  0.00  0.00    +0.057 A 
ATOM      5  C   UNL     1      46.294  19.430   7.005  0.00  0.00    +0.009 A 
ATOM      6  C   UNL     1      46.022  18.766   5.786  0.00  0.00    -0.052 A 
ATOM      7  N   UNL     1      47.042  21.155   8.286  0.00  0.00    -0.287 N 
ATOM      8  C   UNL     1      46.573  20.151   9.114  0.00  0.00    +0.022 A 
ATOM      9  C   UNL     1      46.110  19.083   8.371  0.00  0.00    +0.020 A 
ATOM     10  C   UNL     1      47.594  22.401   8.674  0.00  0.00    +0.229 C 
ATOM     11  C   UNL     1      47.702  22.707  10.138  0.00  0.00    +0.015 C 
ATOM     12  O   UNL     1      47.969  23.201   7.819  0.00  0.00    -0.273 OA
ENDROOT
BRANCH   9  13
ATOM     13  C   UNL     1      45.553  17.865   8.927  0.00  0.00    +0.055 C 
ATOM     14  N   UNL     1      46.104  16.743   8.592  0.00  0.00    -0.186 NA
BRANCH  14  15
ATOM     15  N   UNL     1      45.558  15.612   9.131  0.00  0.00    -0.191 N 
ATOM     16  C   UNL     1      45.824  14.372   8.600  0.00  0.00    +0.317 C 
ATOM     17  O   UNL     1      45.358  13.335   9.054  0.00  0.00    -0.251 OA
ATOM     18  N   UNL     1      46.651  14.391   7.526  0.00  0.00    -0.312 N 
ATOM     19  H   UNL     1      44.965  15.686   9.913  0.00  0.00    +0.000 HD
ATOM     20  H   UNL     1      47.005  15.247   7.193  0.00  0.00    +0.000 HD
ATOM     21  H   UNL     1      46.899  13.549   7.081  0.00  0.00    +0.000 HD
ENDBRANCH  14  15
ENDBRANCH   9  13
TORSDOF 2
ENDMDL
