MODEL 1
REMARK VINA RESULT:    -8.007      0.000      0.000
REMARK INTER + INTRA:         -10.758
REMARK INTER:                 -10.815
REMARK INTRA:                   0.057
REMARK UNBOUND:                 0.057
REMARK  Name = 17j.sdf
REMARK  8 active torsions:
REMARK  status: ('A' for Active; 'I' for Inactive)
REMARK    1  A    between atoms: N_7  and  C_16
REMARK    2  A    between atoms: C_9  and  C_10
REMARK    3  A    between atoms: N_11  and  N_12
REMARK    4  A    between atoms: C_16  and  C_17
REMARK    5  A    between atoms: C_19  and  O_23
REMARK    6  A    between atoms: C_21  and  O_25
REMARK    7  A    between atoms: O_23  and  C_24
REMARK    8  A    between atoms: O_25  and  C_26
REMARK                            x       y       z     vdW  Elec       q    Type
REMARK                         _______ _______ _______ _____ _____    ______ ____
ROOT
ATOM      1  C   UNL     1      45.723  21.102  10.561  0.00  0.00    -0.061 A 
ATOM      2  C   UNL     1      45.716  20.190   9.511  0.00  0.00    -0.060 A 
ATOM      3  C   UNL     1      46.355  20.480   8.301  0.00  0.00    -0.038 A 
ATOM      4  C   UNL     1      47.002  21.721   8.174  0.00  0.00    +0.050 A 
ATOM      5  C   UNL     1      47.059  22.637   9.232  0.00  0.00    +0.009 A 
ATOM      6  C   UNL     1      46.399  22.319  10.440  0.00  0.00    -0.052 A 
ATOM      7  N   UNL     1      47.667  22.295   7.108  0.00  0.00    -0.342 N 
ATOM      8  C   UNL     1      48.194  23.504   7.484  0.00  0.00    +0.015 A 
ATOM      9  C   UNL     1      47.845  23.751   8.799  0.00  0.00    +0.020 A 
ENDROOT
BRANCH   9  10
ATOM     10  C   UNL     1      48.224  24.918   9.568  0.00  0.00    +0.055 C 
ATOM     11  N   UNL     1      47.838  26.086   9.168  0.00  0.00    -0.186 NA
BRANCH  11  12
ATOM     12  N   UNL     1      48.254  27.136   9.943  0.00  0.00    -0.191 N 
ATOM     13  C   UNL     1      48.111  28.436   9.527  0.00  0.00    +0.317 C 
ATOM     14  O   UNL     1      48.454  29.397  10.205  0.00  0.00    -0.251 OA
ATOM     15  N   UNL     1      47.546  28.565   8.301  0.00  0.00    -0.312 N 
ATOM     16  H   UNL     1      48.663  26.953  10.819  0.00  0.00    +0.000 HD
ATOM     17  H   UNL     1      47.287  27.764   7.792  0.00  0.00    +0.000 HD
ATOM     18  H   UNL     1      47.396  29.460   7.920  0.00  0.00    +0.000 HD
ENDBRANCH  11  12
ENDBRANCH   9  10
BRANCH   7  19
ATOM     19  C   UNL     1      47.765  21.748   5.753  0.00  0.00    +0.049 C 
BRANCH  19  20
ATOM     20  C   UNL     1      46.740  20.686   5.419  0.00  0.00    -0.021 A 
ATOM     21  C   UNL     1      45.392  20.973   5.160  0.00  0.00    -0.015 A 
ATOM     22  C   UNL     1      44.468  19.949   4.943  0.00  0.00    +0.124 A 
ATOM     23  C   UNL     1      44.898  18.620   4.929  0.00  0.00    +0.022 A 
ATOM     24  C   UNL     1      46.240  18.310   5.136  0.00  0.00    +0.124 A 
ATOM     25  C   UNL     1      47.151  19.342   5.380  0.00  0.00    -0.015 A 
BRANCH  22  26
ATOM     26  O   UNL     1      43.124  20.123   4.743  0.00  0.00    -0.495 OA
ATOM     27  C   UNL     1      42.620  19.763   3.461  0.00  0.00    +0.079 C 
ENDBRANCH  22  26
BRANCH  24  28
ATOM     28  O   UNL     1      46.783  17.053   5.132  0.00  0.00    -0.495 OA
ATOM     29  C   UNL     1      46.412  16.191   6.204  0.00  0.00    +0.079 C 
ENDBRANCH  24  28
ENDBRANCH  19  20
ENDBRANCH   7  19
TORSDOF 6
ENDMDL
