MODEL 1
REMARK VINA RESULT:    -6.467      0.000      0.000
REMARK INTER + INTRA:          -9.538
REMARK INTER:                  -9.114
REMARK INTRA:                  -0.424
REMARK UNBOUND:                -0.424
REMARK  Name = 17k.sdf
REMARK  10 active torsions:
REMARK  status: ('A' for Active; 'I' for Inactive)
REMARK    1  A    between atoms: N_7  and  C_16
REMARK    2  A    between atoms: C_9  and  C_10
REMARK    3  A    between atoms: N_11  and  N_12
REMARK    4  A    between atoms: C_16  and  C_17
REMARK    5  A    between atoms: C_19  and  O_23
REMARK    6  A    between atoms: C_20  and  O_27
REMARK    7  A    between atoms: C_21  and  O_25
REMARK    8  A    between atoms: O_23  and  C_24
REMARK    9  A    between atoms: O_25  and  C_26
REMARK   10  A    between atoms: O_27  and  C_28
REMARK                            x       y       z     vdW  Elec       q    Type
REMARK                         _______ _______ _______ _____ _____    ______ ____
ROOT
ATOM      1  C   UNL     1      46.728  22.080  12.046  0.00  0.00    -0.061 A 
ATOM      2  C   UNL     1      45.813  21.123  11.620  0.00  0.00    -0.060 A 
ATOM      3  C   UNL     1      45.685  20.803  10.265  0.00  0.00    -0.038 A 
ATOM      4  C   UNL     1      46.502  21.479   9.344  0.00  0.00    +0.050 A 
ATOM      5  C   UNL     1      47.460  22.415   9.753  0.00  0.00    +0.009 A 
ATOM      6  C   UNL     1      47.562  22.723  11.127  0.00  0.00    -0.052 A 
ATOM      7  N   UNL     1      46.568  21.409   7.965  0.00  0.00    -0.342 N 
ATOM      8  C   UNL     1      47.576  22.219   7.507  0.00  0.00    +0.015 A 
ATOM      9  C   UNL     1      48.163  22.852   8.586  0.00  0.00    +0.020 A 
ENDROOT
BRANCH   9  10
ATOM     10  C   UNL     1      49.280  23.769   8.522  0.00  0.00    +0.055 C 
ATOM     11  N   UNL     1      49.060  25.035   8.672  0.00  0.00    -0.186 NA
BRANCH  11  12
ATOM     12  N   UNL     1      50.166  25.836   8.579  0.00  0.00    -0.191 N 
ATOM     13  C   UNL     1      50.096  27.184   8.825  0.00  0.00    +0.317 C 
ATOM     14  O   UNL     1      51.057  27.935   8.706  0.00  0.00    -0.251 OA
ATOM     15  N   UNL     1      48.872  27.616   9.215  0.00  0.00    -0.312 N 
ATOM     16  H   UNL     1      51.030  25.436   8.330  0.00  0.00    +0.000 HD
ATOM     17  H   UNL     1      48.128  26.978   9.299  0.00  0.00    +0.000 HD
ATOM     18  H   UNL     1      48.727  28.570   9.416  0.00  0.00    +0.000 HD
ENDBRANCH  11  12
ENDBRANCH   9  10
BRANCH   7  19
ATOM     19  C   UNL     1      45.679  20.640   7.093  0.00  0.00    +0.049 C 
BRANCH  19  20
ATOM     20  C   UNL     1      46.011  19.167   6.989  0.00  0.00    -0.021 A 
ATOM     21  C   UNL     1      46.631  18.591   5.877  0.00  0.00    -0.011 A 
ATOM     22  C   UNL     1      46.836  17.204   5.774  0.00  0.00    +0.165 A 
ATOM     23  C   UNL     1      46.458  16.354   6.840  0.00  0.00    +0.204 A 
ATOM     24  C   UNL     1      45.893  16.934   7.997  0.00  0.00    +0.165 A 
ATOM     25  C   UNL     1      45.674  18.322   8.051  0.00  0.00    -0.011 A 
BRANCH  22  26
ATOM     26  O   UNL     1      47.400  16.644   4.654  0.00  0.00    -0.491 OA
ATOM     27  C   UNL     1      48.333  17.411   3.902  0.00  0.00    +0.079 C 
ENDBRANCH  22  26
BRANCH  24  28
ATOM     28  O   UNL     1      45.486  16.323   9.159  0.00  0.00    -0.491 OA
ATOM     29  C   UNL     1      46.430  15.614   9.948  0.00  0.00    +0.079 C 
ENDBRANCH  24  28
BRANCH  23  30
ATOM     30  O   UNL     1      46.599  14.991   6.864  0.00  0.00    -0.488 OA
ATOM     31  C   UNL     1      47.818  14.389   7.264  0.00  0.00    +0.079 C 
ENDBRANCH  23  30
ENDBRANCH  19  20
ENDBRANCH   7  19
TORSDOF 7
ENDMDL
