MODEL 1
REMARK VINA RESULT:    -8.908      0.000      0.000
REMARK INTER + INTRA:         -11.864
REMARK INTER:                 -11.512
REMARK INTRA:                  -0.351
REMARK UNBOUND:                -0.351
REMARK  Name = 21.sdf
REMARK  5 active torsions:
REMARK  status: ('A' for Active; 'I' for Inactive)
REMARK    1  A    between atoms: C_9  and  C_10
REMARK    2  A    between atoms: C_10  and  O_11
REMARK    3  A    between atoms: O_11  and  C_12
REMARK    4  A    between atoms: C_12  and  C_13
REMARK    5  A    between atoms: C_13  and  C_14
REMARK                            x       y       z     vdW  Elec       q    Type
REMARK                         _______ _______ _______ _____ _____    ______ ____
ROOT
ATOM      1  C   UNL     1      46.004  20.432   8.460  0.00  0.00    +0.075 C 
ENDROOT
BRANCH   1  10
ATOM      2  C   UNL     1      45.853  15.737   8.975  0.00  0.00    -0.061 A 
ATOM      3  C   UNL     1      46.186  15.059   7.805  0.00  0.00    -0.060 A 
ATOM      4  C   UNL     1      46.435  15.761   6.621  0.00  0.00    -0.038 A 
ATOM      5  C   UNL     1      46.377  17.159   6.663  0.00  0.00    +0.047 A 
ATOM      6  C   UNL     1      46.077  17.873   7.825  0.00  0.00    +0.005 A 
ATOM      7  C   UNL     1      45.778  17.137   8.991  0.00  0.00    -0.052 A 
ATOM      8  N   UNL     1      46.570  18.086   5.666  0.00  0.00    -0.360 N 
ATOM      9  C   UNL     1      46.447  19.353   6.164  0.00  0.00    +0.008 A 
ATOM     10  C   UNL     1      46.170  19.274   7.518  0.00  0.00    +0.003 A 
ATOM     11  H   UNL     1      46.769  17.870   4.727  0.00  0.00    +0.000 HD
ENDBRANCH   1  10
BRANCH   1  12
ATOM     12  O   UNL     1      46.667  21.599   7.954  0.00  0.00    -0.367 OA
BRANCH  12  13
ATOM     13  C   UNL     1      47.930  21.826   8.559  0.00  0.00    +0.111 C 
BRANCH  13  14
ATOM     14  C   UNL     1      47.829  22.686   9.818  0.00  0.00    +0.189 C 
ATOM     15  O   UNL     1      47.596  22.180  10.922  0.00  0.00    -0.290 OA
BRANCH  14  16
ATOM     16  C   UNL     1      48.113  24.150   9.742  0.00  0.00    +0.020 A 
ATOM     17  C   UNL     1      49.221  24.729  10.369  0.00  0.00    -0.050 A 
ATOM     18  C   UNL     1      49.403  26.115  10.339  0.00  0.00    -0.047 A 
ATOM     19  C   UNL     1      48.477  26.923   9.681  0.00  0.00    +0.018 A 
ATOM     20  C   UNL     1      47.383  26.359   9.029  0.00  0.00    -0.047 A 
ATOM     21  C   UNL     1      47.202  24.974   9.061  0.00  0.00    -0.050 A 
ATOM     22 BR   UNL     1      48.683  28.802   9.712  0.00  0.00    -0.050 Br
ENDBRANCH  14  16
ENDBRANCH  13  14
ENDBRANCH  12  13
ENDBRANCH   1  12
TORSDOF 5
ENDMDL
