MODEL 1
REMARK VINA RESULT:    -7.194      0.000      0.000
REMARK INTER + INTRA:         -10.568
REMARK INTER:                  -9.718
REMARK INTRA:                  -0.850
REMARK UNBOUND:                -0.850
REMARK  Name = 22a.sdf
REMARK  7 active torsions:
REMARK  status: ('A' for Active; 'I' for Inactive)
REMARK    1  A    between atoms: N_7  and  C_12
REMARK    2  A    between atoms: C_9  and  C_10
REMARK    3  A    between atoms: N_11  and  N_19
REMARK    4  A    between atoms: C_12  and  C_13
REMARK    5  A    between atoms: C_20  and  C_22
REMARK    6  A    between atoms: C_25  and  O_29
REMARK    7  A    between atoms: O_29  and  C_30
REMARK                            x       y       z     vdW  Elec       q    Type
REMARK                         _______ _______ _______ _____ _____    ______ ____
ROOT
ATOM      1  C   UNL     1      43.220  20.708   4.171  0.00  0.00    -0.061 A 
ATOM      2  C   UNL     1      43.333  19.330   4.033  0.00  0.00    -0.060 A 
ATOM      3  C   UNL     1      44.430  18.643   4.561  0.00  0.00    -0.038 A 
ATOM      4  C   UNL     1      45.414  19.377   5.246  0.00  0.00    +0.050 A 
ATOM      5  C   UNL     1      45.297  20.761   5.438  0.00  0.00    +0.009 A 
ATOM      6  C   UNL     1      44.187  21.431   4.876  0.00  0.00    -0.052 A 
ATOM      7  N   UNL     1      46.610  18.992   5.824  0.00  0.00    -0.342 N 
ATOM      8  C   UNL     1      47.199  20.071   6.434  0.00  0.00    +0.015 A 
ATOM      9  C   UNL     1      46.412  21.188   6.226  0.00  0.00    +0.020 A 
ENDROOT
BRANCH   9  10
ATOM     10  C   UNL     1      46.678  22.520   6.720  0.00  0.00    +0.055 C 
ATOM     11  N   UNL     1      47.047  22.690   7.951  0.00  0.00    -0.187 NA
BRANCH  11  12
ATOM     12  N   UNL     1      47.270  23.982   8.342  0.00  0.00    -0.203 N 
ATOM     13  C   UNL     1      48.574  24.426   8.506  0.00  0.00    +0.263 C 
ATOM     14  O   UNL     1      49.581  23.753   8.314  0.00  0.00    -0.268 OA
ATOM     15  H   UNL     1      46.514  24.592   8.504  0.00  0.00    +0.000 HD
BRANCH  13  16
ATOM     16  C   UNL     1      48.732  25.857   8.907  0.00  0.00    +0.039 A 
ATOM     17  C   UNL     1      47.654  26.649   9.315  0.00  0.00    -0.046 A 
ATOM     18  C   UNL     1      47.868  27.987   9.664  0.00  0.00    -0.019 A 
ATOM     19  C   UNL     1      49.152  28.539   9.637  0.00  0.00    +0.120 A 
ATOM     20  C   UNL     1      50.230  27.745   9.251  0.00  0.00    -0.019 A 
ATOM     21  C   UNL     1      50.020  26.408   8.890  0.00  0.00    -0.046 A 
BRANCH  19  22
ATOM     22  O   UNL     1      49.218  29.867   9.956  0.00  0.00    -0.495 OA
ATOM     23  C   UNL     1      48.198  30.364  10.814  0.00  0.00    +0.079 C 
ENDBRANCH  19  22
ENDBRANCH  13  16
ENDBRANCH  11  12
ENDBRANCH   9  10
BRANCH   7  24
ATOM     24  C   UNL     1      47.232  17.672   5.726  0.00  0.00    +0.048 C 
BRANCH  24  25
ATOM     25  C   UNL     1      46.671  16.713   6.745  0.00  0.00    -0.028 A 
ATOM     26  C   UNL     1      46.154  17.185   7.961  0.00  0.00    -0.056 A 
ATOM     27  C   UNL     1      45.745  16.292   8.954  0.00  0.00    -0.047 A 
ATOM     28  C   UNL     1      45.837  14.921   8.730  0.00  0.00    +0.018 A 
ATOM     29  C   UNL     1      46.293  14.434   7.507  0.00  0.00    -0.047 A 
ATOM     30  C   UNL     1      46.707  15.328   6.517  0.00  0.00    -0.056 A 
ATOM     31 BR   UNL     1      45.375  13.714  10.109  0.00  0.00    -0.050 Br
ENDBRANCH  24  25
ENDBRANCH   7  24
TORSDOF 6
ENDMDL
