MODEL 1
REMARK VINA RESULT:    -7.570      0.000      0.000
REMARK INTER + INTRA:         -10.886
REMARK INTER:                 -10.004
REMARK INTRA:                  -0.882
REMARK UNBOUND:                -0.882
REMARK  Name = 24a.sdf
REMARK  6 active torsions:
REMARK  status: ('A' for Active; 'I' for Inactive)
REMARK    1  A    between atoms: N_7  and  C_10
REMARK    2  A    between atoms: C_9  and  C_18
REMARK    3  A    between atoms: C_10  and  C_11
REMARK    4  A    between atoms: N_19  and  N_20
REMARK    5  A    between atoms: C_21  and  C_23
REMARK    6  A    between atoms: C_26  and  O_29
REMARK                            x       y       z     vdW  Elec       q    Type
REMARK                         _______ _______ _______ _____ _____    ______ ____
ROOT
ATOM      1  C   UNL     1      43.296  20.836   4.211  0.00  0.00    -0.061 A 
ATOM      2  C   UNL     1      43.391  19.455   4.137  0.00  0.00    -0.060 A 
ATOM      3  C   UNL     1      44.438  18.762   4.768  0.00  0.00    -0.038 A 
ATOM      4  C   UNL     1      45.427  19.510   5.451  0.00  0.00    +0.050 A 
ATOM      5  C   UNL     1      45.307  20.900   5.586  0.00  0.00    +0.009 A 
ATOM      6  C   UNL     1      44.226  21.563   4.955  0.00  0.00    -0.052 A 
ATOM      7  N   UNL     1      46.612  19.138   6.062  0.00  0.00    -0.342 N 
ATOM      8  C   UNL     1      47.175  20.245   6.660  0.00  0.00    +0.015 A 
ATOM      9  C   UNL     1      46.384  21.350   6.411  0.00  0.00    +0.020 A 
ENDROOT
BRANCH   9  10
ATOM     10  C   UNL     1      46.617  22.697   6.898  0.00  0.00    +0.055 C 
ATOM     11  N   UNL     1      47.231  22.885   8.021  0.00  0.00    -0.187 NA
BRANCH  11  12
ATOM     12  N   UNL     1      47.383  24.189   8.412  0.00  0.00    -0.203 N 
ATOM     13  C   UNL     1      48.659  24.705   8.604  0.00  0.00    +0.263 C 
ATOM     14  O   UNL     1      49.704  24.073   8.438  0.00  0.00    -0.268 OA
ATOM     15  H   UNL     1      46.592  24.757   8.556  0.00  0.00    +0.000 HD
BRANCH  13  16
ATOM     16  C   UNL     1      48.746  26.138   9.002  0.00  0.00    +0.039 A 
ATOM     17  C   UNL     1      49.958  26.843   9.019  0.00  0.00    -0.046 A 
ATOM     18  C   UNL     1      49.990  28.181   9.428  0.00  0.00    -0.019 A 
ATOM     19  C   UNL     1      48.808  28.812   9.808  0.00  0.00    +0.117 A 
ATOM     20  C   UNL     1      47.592  28.140   9.757  0.00  0.00    -0.019 A 
ATOM     21  C   UNL     1      47.562  26.804   9.352  0.00  0.00    -0.046 A 
BRANCH  19  22
ATOM     22  O   UNL     1      48.798  30.104  10.240  0.00  0.00    -0.507 OA
ATOM     23  H   UNL     1      49.607  30.554  10.390  0.00  0.00    +0.000 HD
ENDBRANCH  19  22
ENDBRANCH  13  16
ENDBRANCH  11  12
ENDBRANCH   9  10
BRANCH   7  24
ATOM     24  C   UNL     1      47.292  17.839   5.999  0.00  0.00    +0.048 C 
BRANCH  24  25
ATOM     25  C   UNL     1      46.632  16.793   6.868  0.00  0.00    -0.028 A 
ATOM     26  C   UNL     1      46.154  17.130   8.143  0.00  0.00    -0.056 A 
ATOM     27  C   UNL     1      45.749  16.134   9.034  0.00  0.00    -0.047 A 
ATOM     28  C   UNL     1      45.778  14.798   8.638  0.00  0.00    +0.018 A 
ATOM     29  C   UNL     1      46.128  14.458   7.334  0.00  0.00    -0.047 A 
ATOM     30  C   UNL     1      46.551  15.454   6.450  0.00  0.00    -0.056 A 
ATOM     31 BR   UNL     1      45.426  13.440   9.903  0.00  0.00    -0.050 Br
ENDBRANCH  24  25
ENDBRANCH   7  24
TORSDOF 6
ENDMDL
