MODEL 1
REMARK VINA RESULT:    -7.654      0.000      0.000
REMARK INTER + INTRA:         -11.367
REMARK INTER:                 -10.339
REMARK INTRA:                  -1.029
REMARK UNBOUND:                -1.029
REMARK  Name = 26a.sdf
REMARK  7 active torsions:
REMARK  status: ('A' for Active; 'I' for Inactive)
REMARK    1  A    between atoms: N_7  and  C_10
REMARK    2  A    between atoms: C_9  and  C_18
REMARK    3  A    between atoms: C_10  and  C_11
REMARK    4  A    between atoms: N_19  and  N_20
REMARK    5  A    between atoms: C_21  and  C_23
REMARK    6  A    between atoms: C_26  and  O_29
REMARK    7  A    between atoms: C_28  and  O_30
REMARK                            x       y       z     vdW  Elec       q    Type
REMARK                         _______ _______ _______ _____ _____    ______ ____
ROOT
ATOM      1  C   UNL     1      43.364  20.761   4.223  0.00  0.00    -0.061 A 
ATOM      2  C   UNL     1      43.340  19.374   4.145  0.00  0.00    -0.060 A 
ATOM      3  C   UNL     1      44.420  18.609   4.595  0.00  0.00    -0.038 A 
ATOM      4  C   UNL     1      45.531  19.275   5.139  0.00  0.00    +0.050 A 
ATOM      5  C   UNL     1      45.557  20.669   5.273  0.00  0.00    +0.009 A 
ATOM      6  C   UNL     1      44.460  21.419   4.792  0.00  0.00    -0.052 A 
ATOM      7  N   UNL     1      46.743  18.803   5.608  0.00  0.00    -0.342 N 
ATOM      8  C   UNL     1      47.484  19.844   6.106  0.00  0.00    +0.015 A 
ATOM      9  C   UNL     1      46.784  21.018   5.919  0.00  0.00    +0.020 A 
ENDROOT
BRANCH   9  10
ATOM     10  C   UNL     1      47.232  22.337   6.312  0.00  0.00    +0.055 C 
ATOM     11  N   UNL     1      47.955  22.477   7.375  0.00  0.00    -0.187 NA
BRANCH  11  12
ATOM     12  N   UNL     1      48.314  23.759   7.663  0.00  0.00    -0.203 N 
ATOM     13  C   UNL     1      47.915  24.363   8.840  0.00  0.00    +0.267 C 
ATOM     14  O   UNL     1      47.236  23.824   9.715  0.00  0.00    -0.268 OA
ATOM     15  H   UNL     1      48.866  24.263   7.023  0.00  0.00    +0.000 HD
BRANCH  13  16
ATOM     16  C   UNL     1      48.355  25.787   9.027  0.00  0.00    +0.080 A 
ATOM     17  C   UNL     1      47.408  26.695   9.533  0.00  0.00    -0.043 A 
ATOM     18  C   UNL     1      47.728  28.041   9.724  0.00  0.00    -0.019 A 
ATOM     19  C   UNL     1      49.008  28.485   9.410  0.00  0.00    +0.120 A 
ATOM     20  C   UNL     1      49.967  27.609   8.917  0.00  0.00    +0.022 A 
ATOM     21  C   UNL     1      49.642  26.262   8.724  0.00  0.00    +0.132 A 
BRANCH  19  22
ATOM     22  O   UNL     1      49.367  29.790   9.566  0.00  0.00    -0.507 OA
ATOM     23  H   UNL     1      50.122  30.125   9.122  0.00  0.00    +0.000 HD
ENDBRANCH  19  22
BRANCH  21  24
ATOM     24  O   UNL     1      50.609  25.423   8.228  0.00  0.00    -0.506 OA
ATOM     25  H   UNL     1      50.363  24.640   7.775  0.00  0.00    +0.000 HD
ENDBRANCH  21  24
ENDBRANCH  13  16
ENDBRANCH  11  12
ENDBRANCH   9  10
BRANCH   7  26
ATOM     26  C   UNL     1      47.244  17.435   5.499  0.00  0.00    +0.048 C 
BRANCH  26  27
ATOM     27  C   UNL     1      46.691  16.549   6.587  0.00  0.00    -0.028 A 
ATOM     28  C   UNL     1      46.176  17.108   7.766  0.00  0.00    -0.056 A 
ATOM     29  C   UNL     1      45.771  16.290   8.822  0.00  0.00    -0.047 A 
ATOM     30  C   UNL     1      45.867  14.906   8.699  0.00  0.00    +0.018 A 
ATOM     31  C   UNL     1      46.325  14.332   7.516  0.00  0.00    -0.047 A 
ATOM     32  C   UNL     1      46.735  15.152   6.462  0.00  0.00    -0.056 A 
ATOM     33 BR   UNL     1      45.408  13.803  10.163  0.00  0.00    -0.050 Br
ENDBRANCH  26  27
ENDBRANCH   7  26
TORSDOF 7
ENDMDL
