MODEL 1
REMARK VINA RESULT:    -8.217      0.000      0.000
REMARK INTER + INTRA:         -11.683
REMARK INTER:                 -10.859
REMARK INTRA:                  -0.824
REMARK UNBOUND:                -0.824
REMARK  Name = 27c.sdf
REMARK  6 active torsions:
REMARK  status: ('A' for Active; 'I' for Inactive)
REMARK    1  A    between atoms: N_7  and  C_10
REMARK    2  A    between atoms: C_9  and  C_18
REMARK    3  A    between atoms: C_10  and  C_11
REMARK    4  A    between atoms: N_19  and  N_20
REMARK    5  A    between atoms: C_21  and  C_23
REMARK    6  A    between atoms: C_26  and  N_29
REMARK                            x       y       z     vdW  Elec       q    Type
REMARK                         _______ _______ _______ _____ _____    ______ ____
ROOT
ATOM      1  C   UNL     1      43.252  20.721   4.231  0.00  0.00    -0.061 A 
ATOM      2  C   UNL     1      43.361  19.342   4.104  0.00  0.00    -0.060 A 
ATOM      3  C   UNL     1      44.436  18.649   4.670  0.00  0.00    -0.038 A 
ATOM      4  C   UNL     1      45.408  19.381   5.375  0.00  0.00    +0.050 A 
ATOM      5  C   UNL     1      45.287  20.763   5.562  0.00  0.00    +0.009 A 
ATOM      6  C   UNL     1      44.199  21.438   4.967  0.00  0.00    -0.052 A 
ATOM      7  N   UNL     1      46.592  18.995   5.978  0.00  0.00    -0.342 N 
ATOM      8  C   UNL     1      47.165  20.074   6.606  0.00  0.00    +0.015 A 
ATOM      9  C   UNL     1      46.379  21.190   6.377  0.00  0.00    +0.020 A 
ENDROOT
BRANCH   9  10
ATOM     10  C   UNL     1      46.627  22.522   6.887  0.00  0.00    +0.055 C 
ATOM     11  N   UNL     1      47.131  22.679   8.067  0.00  0.00    -0.187 NA
BRANCH  11  12
ATOM     12  N   UNL     1      47.323  23.974   8.474  0.00  0.00    -0.203 N 
ATOM     13  C   UNL     1      48.612  24.490   8.526  0.00  0.00    +0.263 C 
ATOM     14  O   UNL     1      49.631  23.878   8.219  0.00  0.00    -0.268 OA
ATOM     15  H   UNL     1      46.554  24.534   8.728  0.00  0.00    +0.000 HD
BRANCH  13  16
ATOM     16  C   UNL     1      48.727  25.916   8.950  0.00  0.00    +0.038 A 
ATOM     17  C   UNL     1      49.951  26.590   9.012  0.00  0.00    -0.048 A 
ATOM     18  C   UNL     1      49.993  27.929   9.425  0.00  0.00    -0.040 A 
ATOM     19  C   UNL     1      48.829  28.599   9.812  0.00  0.00    +0.025 A 
ATOM     20  C   UNL     1      47.603  27.950   9.662  0.00  0.00    -0.040 A 
ATOM     21  C   UNL     1      47.550  26.612   9.252  0.00  0.00    -0.048 A 
BRANCH  19  22
ATOM     22  N   UNL     1      48.869  29.965  10.113  0.00  0.00    -0.358 N 
ATOM     23  H   UNL     1      49.733  30.437  10.144  0.00  0.00    +0.000 HD
ATOM     24  H   UNL     1      48.034  30.454  10.293  0.00  0.00    +0.000 HD
ENDBRANCH  19  22
ENDBRANCH  13  16
ENDBRANCH  11  12
ENDBRANCH   9  10
BRANCH   7  25
ATOM     25  C   UNL     1      47.231  17.682   5.881  0.00  0.00    +0.048 C 
BRANCH  25  26
ATOM     26  C   UNL     1      46.645  16.700   6.866  0.00  0.00    -0.028 A 
ATOM     27  C   UNL     1      46.146  17.142   8.101  0.00  0.00    -0.055 A 
ATOM     28  C   UNL     1      45.742  16.225   9.072  0.00  0.00    -0.043 A 
ATOM     29  C   UNL     1      45.813  14.860   8.806  0.00  0.00    +0.041 A 
ATOM     30  C   UNL     1      46.234  14.406   7.560  0.00  0.00    -0.043 A 
ATOM     31  C   UNL     1      46.646  15.324   6.591  0.00  0.00    -0.055 A 
ATOM     32 CL   UNL     1      45.409  13.729  10.039  0.00  0.00    -0.084 Cl
ENDBRANCH  25  26
ENDBRANCH   7  25
TORSDOF 6
ENDMDL
