MODEL 1
REMARK VINA RESULT:    -7.316      0.000      0.000
REMARK INTER + INTRA:          -8.330
REMARK INTER:                  -8.171
REMARK INTRA:                  -0.159
REMARK UNBOUND:                -0.159
REMARK  Name = 2.sdf
REMARK  2 active torsions:
REMARK  status: ('A' for Active; 'I' for Inactive)
REMARK    1  A    between atoms: C_9  and  C_10
REMARK    2  A    between atoms: C_11  and  C_12
REMARK                            x       y       z     vdW  Elec       q    Type
REMARK                         _______ _______ _______ _____ _____    ______ ____
ROOT
ATOM      1  C   UNL     1      47.527  28.898   9.769  0.00  0.00    -0.061 A 
ATOM      2  C   UNL     1      48.697  29.492   9.310  0.00  0.00    -0.060 A 
ATOM      3  C   UNL     1      49.741  28.717   8.801  0.00  0.00    -0.038 A 
ATOM      4  C   UNL     1      49.568  27.327   8.770  0.00  0.00    +0.047 A 
ATOM      5  C   UNL     1      48.405  26.692   9.217  0.00  0.00    +0.007 A 
ATOM      6  C   UNL     1      47.370  27.506   9.732  0.00  0.00    -0.052 A 
ATOM      7  N   UNL     1      50.430  26.346   8.339  0.00  0.00    -0.360 N 
ATOM      8  C   UNL     1      49.867  25.110   8.512  0.00  0.00    +0.010 A 
ATOM      9  C   UNL     1      48.604  25.285   9.037  0.00  0.00    +0.000 A 
ATOM     10  H   UNL     1      51.324  26.509   7.960  0.00  0.00    +0.000 HD
ENDROOT
BRANCH   9  11
ATOM     11  C   UNL     1      47.746  24.178   9.339  0.00  0.00    -0.046 C 
ATOM     12  C   UNL     1      48.075  23.133  10.115  0.00  0.00    +0.023 C 
BRANCH  12  13
ATOM     13  C   UNL     1      47.260  21.958  10.479  0.00  0.00    +0.330 C 
ATOM     14  O   UNL     1      46.865  21.867  11.759  0.00  0.00    -0.478 OA
ATOM     15  O   UNL     1      46.964  21.118   9.643  0.00  0.00    -0.246 OA
ENDBRANCH  12  13
ENDBRANCH   9  11
TORSDOF 2
ENDMDL
