MODEL 1
REMARK VINA RESULT:    -7.117      0.000      0.000
REMARK INTER + INTRA:          -9.114
REMARK INTER:                  -8.573
REMARK INTRA:                  -0.541
REMARK UNBOUND:                -0.541
REMARK  Name = 4b.sdf
REMARK  4 active torsions:
REMARK  status: ('A' for Active; 'I' for Inactive)
REMARK    1  A    between atoms: N_7  and  C_11
REMARK    2  A    between atoms: C_9  and  C_10
REMARK    3  A    between atoms: C_10  and  O_18
REMARK    4  A    between atoms: C_11  and  C_12
REMARK                            x       y       z     vdW  Elec       q    Type
REMARK                         _______ _______ _______ _____ _____    ______ ____
ROOT
ATOM      1  C   UNL     1      45.349  20.369   9.744  0.00  0.00    -0.061 A 
ATOM      2  C   UNL     1      45.773  21.203  10.774  0.00  0.00    -0.060 A 
ATOM      3  C   UNL     1      46.709  22.220  10.547  0.00  0.00    -0.038 A 
ATOM      4  C   UNL     1      47.238  22.369   9.253  0.00  0.00    +0.050 A 
ATOM      5  C   UNL     1      46.768  21.585   8.192  0.00  0.00    +0.005 A 
ATOM      6  C   UNL     1      45.823  20.566   8.448  0.00  0.00    -0.052 A 
ATOM      7  N   UNL     1      48.230  23.186   8.734  0.00  0.00    -0.342 N 
ATOM      8  C   UNL     1      48.312  22.994   7.374  0.00  0.00    +0.011 A 
ATOM      9  C   UNL     1      47.410  22.031   6.995  0.00  0.00    +0.003 A 
ENDROOT
BRANCH   9  10
ATOM     10  C   UNL     1      47.168  21.501   5.622  0.00  0.00    +0.071 C 
BRANCH  10  11
ATOM     11  O   UNL     1      47.534  20.131   5.508  0.00  0.00    -0.390 OA
ATOM     12  H   UNL     1      47.069  19.734   4.754  0.00  0.00    +0.000 HD
ENDBRANCH  10  11
ENDBRANCH   9  10
BRANCH   7  13
ATOM     13  C   UNL     1      49.186  24.008   9.484  0.00  0.00    +0.048 C 
BRANCH  13  14
ATOM     14  C   UNL     1      49.004  25.481   9.213  0.00  0.00    -0.025 A 
ATOM     15  C   UNL     1      50.098  26.277   8.865  0.00  0.00    -0.039 A 
ATOM     16  C   UNL     1      49.919  27.647   8.749  0.00  0.00    +0.028 A 
ATOM     17  N   UNL     1      48.731  28.266   8.912  0.00  0.00    -0.263 NA
ATOM     18  C   UNL     1      47.673  27.478   9.198  0.00  0.00    +0.028 A 
ATOM     19  C   UNL     1      47.755  26.101   9.349  0.00  0.00    -0.039 A 
ENDBRANCH  13  14
ENDBRANCH   7  13
TORSDOF 4
ENDMDL
