MODEL 1
REMARK VINA RESULT:    -8.459      0.000      0.000
REMARK INTER + INTRA:         -10.392
REMARK INTER:                 -10.190
REMARK INTRA:                  -0.202
REMARK UNBOUND:                -0.202
REMARK  Name = 4c.sdf
REMARK  4 active torsions:
REMARK  status: ('A' for Active; 'I' for Inactive)
REMARK    1  A    between atoms: N_7  and  C_11
REMARK    2  A    between atoms: C_9  and  C_10
REMARK    3  A    between atoms: C_10  and  O_19
REMARK    4  A    between atoms: C_11  and  C_12
REMARK                            x       y       z     vdW  Elec       q    Type
REMARK                         _______ _______ _______ _____ _____    ______ ____
ROOT
ATOM      1  C   UNL     1      45.814  20.110   7.392  0.00  0.00    -0.061 A 
ATOM      2  C   UNL     1      46.676  20.733   6.497  0.00  0.00    -0.060 A 
ATOM      3  C   UNL     1      47.561  21.728   6.921  0.00  0.00    -0.038 A 
ATOM      4  C   UNL     1      47.567  22.076   8.283  0.00  0.00    +0.050 A 
ATOM      5  C   UNL     1      46.739  21.435   9.209  0.00  0.00    +0.005 A 
ATOM      6  C   UNL     1      45.839  20.450   8.748  0.00  0.00    -0.052 A 
ATOM      7  N   UNL     1      48.283  23.032   8.981  0.00  0.00    -0.342 N 
ATOM      8  C   UNL     1      47.974  22.964  10.315  0.00  0.00    +0.011 A 
ATOM      9  C   UNL     1      47.021  21.981  10.502  0.00  0.00    +0.003 A 
ENDROOT
BRANCH   9  10
ATOM     10  C   UNL     1      46.391  21.573  11.789  0.00  0.00    +0.071 C 
BRANCH  10  11
ATOM     11  O   UNL     1      44.974  21.447  11.681  0.00  0.00    -0.390 OA
ATOM     12  H   UNL     1      44.688  20.629  12.118  0.00  0.00    +0.000 HD
ENDBRANCH  10  11
ENDBRANCH   9  10
BRANCH   7  13
ATOM     13  C   UNL     1      49.155  24.049   8.394  0.00  0.00    +0.048 C 
BRANCH  13  14
ATOM     14  C   UNL     1      48.852  25.425   8.936  0.00  0.00    -0.028 A 
ATOM     15  C   UNL     1      47.531  25.896   8.989  0.00  0.00    -0.055 A 
ATOM     16  C   UNL     1      47.256  27.196   9.416  0.00  0.00    -0.043 A 
ATOM     17  C   UNL     1      48.300  28.032   9.803  0.00  0.00    +0.041 A 
ATOM     18  C   UNL     1      49.613  27.570   9.791  0.00  0.00    -0.043 A 
ATOM     19  C   UNL     1      49.889  26.271   9.360  0.00  0.00    -0.055 A 
ATOM     20 CL   UNL     1      47.964  29.649  10.283  0.00  0.00    -0.084 Cl
ENDBRANCH  13  14
ENDBRANCH   7  13
TORSDOF 4
ENDMDL
