MODEL 1
REMARK VINA RESULT:    -7.356      0.000      0.000
REMARK INTER + INTRA:          -8.847
REMARK INTER:                  -8.646
REMARK INTRA:                  -0.200
REMARK UNBOUND:                -0.200
REMARK  Name = 5.sdf
REMARK  4 active torsions:
REMARK  status: ('A' for Active; 'I' for Inactive)
REMARK    1  A    between atoms: C_9  and  C_10
REMARK    2  A    between atoms: C_11  and  C_12
REMARK    3  A    between atoms: C_12  and  O_13
REMARK    4  A    between atoms: O_13  and  C_15
REMARK                            x       y       z     vdW  Elec       q    Type
REMARK                         _______ _______ _______ _____ _____    ______ ____
ROOT
ATOM      1  C   UNL     1      47.386  28.839   9.677  0.00  0.00    -0.061 A 
ATOM      2  C   UNL     1      48.596  29.439   9.335  0.00  0.00    -0.060 A 
ATOM      3  C   UNL     1      49.680  28.662   8.927  0.00  0.00    -0.038 A 
ATOM      4  C   UNL     1      49.507  27.274   8.880  0.00  0.00    +0.047 A 
ATOM      5  C   UNL     1      48.310  26.629   9.214  0.00  0.00    +0.007 A 
ATOM      6  C   UNL     1      47.230  27.443   9.622  0.00  0.00    -0.052 A 
ATOM      7  N   UNL     1      50.404  26.300   8.515  0.00  0.00    -0.360 N 
ATOM      8  C   UNL     1      49.828  25.064   8.613  0.00  0.00    +0.010 A 
ATOM      9  C   UNL     1      48.523  25.214   9.044  0.00  0.00    +0.000 A 
ATOM     10  H   UNL     1      51.329  26.468   8.224  0.00  0.00    +0.000 HD
ENDROOT
BRANCH   9  11
ATOM     11  C   UNL     1      47.602  24.124   9.265  0.00  0.00    -0.046 C 
ATOM     12  C   UNL     1      47.926  22.990   9.922  0.00  0.00    +0.023 C 
BRANCH  12  13
ATOM     13  C   UNL     1      47.115  21.796  10.231  0.00  0.00    +0.332 C 
ATOM     14  O   UNL     1      46.439  21.750  11.250  0.00  0.00    -0.246 OA
BRANCH  13  15
ATOM     15  O   UNL     1      47.204  20.810   9.307  0.00  0.00    -0.465 OA
ATOM     16  C   UNL     1      45.920  20.372   8.843  0.00  0.00    +0.082 C 
ENDBRANCH  13  15
ENDBRANCH  12  13
ENDBRANCH   9  11
TORSDOF 3
ENDMDL
