MODEL 1
REMARK VINA RESULT:    -7.867      0.000      0.000
REMARK INTER + INTRA:         -10.915
REMARK INTER:                 -10.167
REMARK INTRA:                  -0.748
REMARK UNBOUND:                -0.748
REMARK  Name = 5b.sdf
REMARK  6 active torsions:
REMARK  status: ('A' for Active; 'I' for Inactive)
REMARK    1  A    between atoms: N_7  and  C_12
REMARK    2  A    between atoms: C_9  and  C_10
REMARK    3  A    between atoms: C_11  and  C_19
REMARK    4  A    between atoms: C_12  and  C_13
REMARK    5  A    between atoms: C_19  and  O_20
REMARK    6  A    between atoms: O_20  and  C_22
REMARK                            x       y       z     vdW  Elec       q    Type
REMARK                         _______ _______ _______ _____ _____    ______ ____
ROOT
ATOM      1  C   UNL     1      46.039  21.488  11.031  0.00  0.00    -0.061 A 
ATOM      2  C   UNL     1      45.352  20.514  10.320  0.00  0.00    -0.060 A 
ATOM      3  C   UNL     1      45.518  20.382   8.938  0.00  0.00    -0.038 A 
ATOM      4  C   UNL     1      46.406  21.254   8.283  0.00  0.00    +0.050 A 
ATOM      5  C   UNL     1      47.142  22.215   8.987  0.00  0.00    +0.007 A 
ATOM      6  C   UNL     1      46.939  22.337  10.380  0.00  0.00    -0.052 A 
ATOM      7  N   UNL     1      46.737  21.392   6.947  0.00  0.00    -0.342 N 
ATOM      8  C   UNL     1      47.709  22.359   6.803  0.00  0.00    +0.013 A 
ATOM      9  C   UNL     1      47.989  22.884   8.048  0.00  0.00    +0.000 A 
ENDROOT
BRANCH   9  10
ATOM     10  C   UNL     1      48.950  23.906   8.358  0.00  0.00    -0.046 C 
ATOM     11  C   UNL     1      48.672  25.121   8.853  0.00  0.00    +0.023 C 
BRANCH  11  12
ATOM     12  C   UNL     1      49.665  26.177   9.149  0.00  0.00    +0.332 C 
ATOM     13  O   UNL     1      50.642  26.350   8.431  0.00  0.00    -0.246 OA
BRANCH  12  14
ATOM     14  O   UNL     1      49.367  26.886  10.263  0.00  0.00    -0.465 OA
ATOM     15  C   UNL     1      48.278  27.796  10.086  0.00  0.00    +0.082 C 
ENDBRANCH  12  14
ENDBRANCH  11  12
ENDBRANCH   9  10
BRANCH   7  16
ATOM     16  C   UNL     1      46.075  20.726   5.827  0.00  0.00    +0.048 C 
BRANCH  16  17
ATOM     17  C   UNL     1      46.685  19.386   5.514  0.00  0.00    -0.025 A 
ATOM     18  C   UNL     1      47.724  19.266   4.586  0.00  0.00    -0.039 A 
ATOM     19  C   UNL     1      48.218  18.004   4.293  0.00  0.00    +0.028 A 
ATOM     20  N   UNL     1      47.766  16.870   4.866  0.00  0.00    -0.263 NA
ATOM     21  C   UNL     1      46.776  17.004   5.773  0.00  0.00    +0.028 A 
ATOM     22  C   UNL     1      46.214  18.220   6.129  0.00  0.00    -0.039 A 
ENDBRANCH  16  17
ENDBRANCH   7  16
TORSDOF 5
ENDMDL
