MODEL 1
REMARK VINA RESULT:    -7.596      0.000      0.000
REMARK INTER + INTRA:          -9.709
REMARK INTER:                  -9.373
REMARK INTRA:                  -0.336
REMARK UNBOUND:                -0.336
REMARK  Name = 5d.sdf
REMARK  5 active torsions:
REMARK  status: ('A' for Active; 'I' for Inactive)
REMARK    1  A    between atoms: C_9  and  C_10
REMARK    2  A    between atoms: C_11  and  C_19
REMARK    3  A    between atoms: C_12  and  C_13
REMARK    4  A    between atoms: C_19  and  O_20
REMARK    5  A    between atoms: O_20  and  C_22
REMARK                            x       y       z     vdW  Elec       q    Type
REMARK                         _______ _______ _______ _____ _____    ______ ____
ROOT
ATOM      1  C   UNL     1      45.522  20.397  10.177  0.00  0.00    -0.061 A 
ATOM      2  C   UNL     1      45.880  21.197  11.254  0.00  0.00    -0.060 A 
ATOM      3  C   UNL     1      46.713  22.304  11.075  0.00  0.00    -0.037 A 
ATOM      4  C   UNL     1      47.185  22.594   9.780  0.00  0.00    +0.057 A 
ATOM      5  C   UNL     1      46.829  21.802   8.678  0.00  0.00    +0.007 A 
ATOM      6  C   UNL     1      45.989  20.688   8.891  0.00  0.00    -0.052 A 
ATOM      7  N   UNL     1      47.965  23.652   9.312  0.00  0.00    -0.283 N 
ATOM      8  C   UNL     1      48.157  23.464   7.950  0.00  0.00    +0.021 A 
ATOM      9  C   UNL     1      47.452  22.363   7.523  0.00  0.00    +0.001 A 
ATOM     10  C   UNL     1      48.466  24.748  10.063  0.00  0.00    +0.263 C 
ATOM     11  O   UNL     1      48.600  24.618  11.277  0.00  0.00    -0.267 OA
ENDROOT
BRANCH  10  12
ATOM     12  C   UNL     1      48.828  26.048   9.440  0.00  0.00    +0.040 A 
ATOM     13  C   UNL     1      50.177  26.383   9.262  0.00  0.00    -0.049 A 
ATOM     14  C   UNL     1      50.525  27.629   8.746  0.00  0.00    -0.061 A 
ATOM     15  C   UNL     1      49.527  28.527   8.371  0.00  0.00    -0.062 A 
ATOM     16  C   UNL     1      48.182  28.171   8.487  0.00  0.00    -0.061 A 
ATOM     17  C   UNL     1      47.826  26.926   9.013  0.00  0.00    -0.049 A 
ENDBRANCH  10  12
BRANCH   9  18
ATOM     18  C   UNL     1      47.373  21.886   6.171  0.00  0.00    -0.046 C 
ATOM     19  C   UNL     1      47.235  20.600   5.809  0.00  0.00    +0.023 C 
BRANCH  19  20
ATOM     20  C   UNL     1      47.158  20.076   4.429  0.00  0.00    +0.332 C 
ATOM     21  O   UNL     1      47.204  20.825   3.464  0.00  0.00    -0.246 OA
BRANCH  20  22
ATOM     22  O   UNL     1      47.031  18.727   4.381  0.00  0.00    -0.465 OA
ATOM     23  C   UNL     1      48.274  18.050   4.165  0.00  0.00    +0.082 C 
ENDBRANCH  20  22
ENDBRANCH  19  20
ENDBRANCH   9  18
TORSDOF 4
ENDMDL
