MODEL 1
REMARK VINA RESULT:    -6.676      0.000      0.000
REMARK INTER + INTRA:          -8.059
REMARK INTER:                  -7.846
REMARK INTRA:                  -0.213
REMARK UNBOUND:                -0.213
REMARK  Name = 7.sdf
REMARK  4 active torsions:
REMARK  status: ('A' for Active; 'I' for Inactive)
REMARK    1  A    between atoms: C_9  and  C_10
REMARK    2  A    between atoms: C_10  and  C_11
REMARK    3  A    between atoms: C_11  and  O_13
REMARK    4  A    between atoms: O_13  and  C_14
REMARK                            x       y       z     vdW  Elec       q    Type
REMARK                         _______ _______ _______ _____ _____    ______ ____
ROOT
ATOM      1  C   UNL     1      47.452  28.777   9.458  0.00  0.00    -0.061 A 
ATOM      2  C   UNL     1      48.704  29.309   9.157  0.00  0.00    -0.060 A 
ATOM      3  C   UNL     1      49.777  28.475   8.830  0.00  0.00    -0.038 A 
ATOM      4  C   UNL     1      49.545  27.095   8.806  0.00  0.00    +0.047 A 
ATOM      5  C   UNL     1      48.299  26.529   9.084  0.00  0.00    +0.003 A 
ATOM      6  C   UNL     1      47.236  27.393   9.425  0.00  0.00    -0.052 A 
ATOM      7  N   UNL     1      50.406  26.060   8.529  0.00  0.00    -0.360 N 
ATOM      8  C   UNL     1      49.744  24.865   8.581  0.00  0.00    +0.006 A 
ATOM      9  C   UNL     1      48.426  25.109   8.921  0.00  0.00    -0.012 A 
ATOM     10  H   UNL     1      51.363  26.165   8.322  0.00  0.00    +0.000 HD
ENDROOT
BRANCH   9  11
ATOM     11  C   UNL     1      47.341  24.084   9.034  0.00  0.00    +0.072 C 
BRANCH  11  12
ATOM     12  C   UNL     1      47.656  22.764   8.361  0.00  0.00    +0.311 C 
ATOM     13  O   UNL     1      47.584  22.511   7.167  0.00  0.00    -0.250 OA
BRANCH  12  14
ATOM     14  O   UNL     1      48.027  21.862   9.323  0.00  0.00    -0.468 OA
ATOM     15  C   UNL     1      47.320  21.975  10.561  0.00  0.00    +0.082 C 
ENDBRANCH  12  14
ENDBRANCH  11  12
ENDBRANCH   9  11
TORSDOF 3
ENDMDL
