MODEL 1
REMARK VINA RESULT:    -7.737      0.000      0.000
REMARK INTER + INTRA:         -10.596
REMARK INTER:                  -9.999
REMARK INTRA:                  -0.597
REMARK UNBOUND:                -0.597
REMARK  Name = 7b.sdf
REMARK  6 active torsions:
REMARK  status: ('A' for Active; 'I' for Inactive)
REMARK    1  A    between atoms: N_7  and  C_12
REMARK    2  A    between atoms: C_9  and  C_10
REMARK    3  A    between atoms: C_10  and  C_11
REMARK    4  A    between atoms: C_11  and  O_20
REMARK    5  A    between atoms: C_12  and  C_13
REMARK    6  A    between atoms: O_20  and  C_21
REMARK                            x       y       z     vdW  Elec       q    Type
REMARK                         _______ _______ _______ _____ _____    ______ ____
ROOT
ATOM      1  C   UNL     1      45.322  20.426  10.012  0.00  0.00    -0.061 A 
ATOM      2  C   UNL     1      45.933  21.277  10.927  0.00  0.00    -0.060 A 
ATOM      3  C   UNL     1      46.934  22.166  10.525  0.00  0.00    -0.038 A 
ATOM      4  C   UNL     1      47.309  22.176   9.172  0.00  0.00    +0.050 A 
ATOM      5  C   UNL     1      46.679  21.360   8.225  0.00  0.00    +0.004 A 
ATOM      6  C   UNL     1      45.676  20.467   8.661  0.00  0.00    -0.052 A 
ATOM      7  N   UNL     1      48.275  22.895   8.497  0.00  0.00    -0.342 N 
ATOM      8  C   UNL     1      48.231  22.605   7.156  0.00  0.00    +0.010 A 
ATOM      9  C   UNL     1      47.241  21.666   6.944  0.00  0.00    -0.012 A 
ENDROOT
BRANCH   9  10
ATOM     10  C   UNL     1      46.848  21.078   5.625  0.00  0.00    +0.072 C 
BRANCH  10  11
ATOM     11  C   UNL     1      45.350  21.076   5.396  0.00  0.00    +0.311 C 
ATOM     12  O   UNL     1      44.571  21.998   5.607  0.00  0.00    -0.250 OA
BRANCH  11  13
ATOM     13  O   UNL     1      44.981  19.857   4.893  0.00  0.00    -0.468 OA
ATOM     14  C   UNL     1      43.617  19.793   4.474  0.00  0.00    +0.082 C 
ENDBRANCH  11  13
ENDBRANCH  10  11
ENDBRANCH   9  10
BRANCH   7  15
ATOM     15  C   UNL     1      49.271  23.775   9.105  0.00  0.00    +0.048 C 
BRANCH  15  16
ATOM     16  C   UNL     1      48.965  25.250   9.003  0.00  0.00    -0.025 A 
ATOM     17  C   UNL     1      47.689  25.796   9.172  0.00  0.00    -0.039 A 
ATOM     18  C   UNL     1      47.521  27.165   9.026  0.00  0.00    +0.028 A 
ATOM     19  N   UNL     1      48.524  28.023   8.746  0.00  0.00    -0.263 NA
ATOM     20  C   UNL     1      49.753  27.487   8.608  0.00  0.00    +0.028 A 
ATOM     21  C   UNL     1      50.020  26.131   8.728  0.00  0.00    -0.039 A 
ENDBRANCH  15  16
ENDBRANCH   7  15
TORSDOF 5
ENDMDL
