MODEL 1
REMARK VINA RESULT:    -8.094      0.000      0.000
REMARK INTER + INTRA:         -10.221
REMARK INTER:                  -9.987
REMARK INTRA:                  -0.234
REMARK UNBOUND:                -0.234
REMARK  Name = 7d.sdf
REMARK  5 active torsions:
REMARK  status: ('A' for Active; 'I' for Inactive)
REMARK    1  A    between atoms: C_9  and  C_10
REMARK    2  A    between atoms: C_10  and  C_11
REMARK    3  A    between atoms: C_11  and  O_20
REMARK    4  A    between atoms: C_12  and  C_13
REMARK    5  A    between atoms: O_20  and  C_22
REMARK                            x       y       z     vdW  Elec       q    Type
REMARK                         _______ _______ _______ _____ _____    ______ ____
ROOT
ATOM      1  C   UNL     1      45.192  19.783   9.410  0.00  0.00    -0.061 A 
ATOM      2  C   UNL     1      45.507  20.477  10.572  0.00  0.00    -0.060 A 
ATOM      3  C   UNL     1      46.360  21.584  10.537  0.00  0.00    -0.037 A 
ATOM      4  C   UNL     1      46.902  21.979   9.300  0.00  0.00    +0.057 A 
ATOM      5  C   UNL     1      46.587  21.297   8.115  0.00  0.00    +0.004 A 
ATOM      6  C   UNL     1      45.722  20.183   8.181  0.00  0.00    -0.052 A 
ATOM      7  N   UNL     1      47.714  23.061   8.962  0.00  0.00    -0.283 N 
ATOM      8  C   UNL     1      47.995  22.970   7.611  0.00  0.00    +0.018 A 
ATOM      9  C   UNL     1      47.262  21.951   7.042  0.00  0.00    -0.011 A 
ATOM     10  C   UNL     1      48.175  24.099   9.810  0.00  0.00    +0.263 C 
ATOM     11  O   UNL     1      48.246  23.887  11.018  0.00  0.00    -0.267 OA
ENDROOT
BRANCH  10  12
ATOM     12  C   UNL     1      48.574  25.431   9.285  0.00  0.00    +0.040 A 
ATOM     13  C   UNL     1      49.932  25.735   9.114  0.00  0.00    -0.049 A 
ATOM     14  C   UNL     1      50.316  27.004   8.684  0.00  0.00    -0.061 A 
ATOM     15  C   UNL     1      49.346  27.961   8.397  0.00  0.00    -0.062 A 
ATOM     16  C   UNL     1      47.990  27.645   8.519  0.00  0.00    -0.061 A 
ATOM     17  C   UNL     1      47.597  26.374   8.956  0.00  0.00    -0.049 A 
ENDBRANCH  10  12
BRANCH   9  18
ATOM     18  C   UNL     1      47.220  21.619   5.581  0.00  0.00    +0.072 C 
BRANCH  18  19
ATOM     19  C   UNL     1      45.887  21.029   5.147  0.00  0.00    +0.311 C 
ATOM     20  O   UNL     1      44.812  21.612   5.099  0.00  0.00    -0.250 OA
BRANCH  19  21
ATOM     21  O   UNL     1      46.069  19.721   4.792  0.00  0.00    -0.468 OA
ATOM     22  C   UNL     1      47.432  19.385   4.520  0.00  0.00    +0.082 C 
ENDBRANCH  19  21
ENDBRANCH  18  19
ENDBRANCH   9  18
TORSDOF 4
ENDMDL
