MODEL 1
REMARK VINA RESULT:    -7.480      0.000      0.000
REMARK INTER + INTRA:         -10.475
REMARK INTER:                  -9.667
REMARK INTRA:                  -0.808
REMARK UNBOUND:                -0.808
REMARK  Name = 8a.sdf
REMARK  5 active torsions:
REMARK  status: ('A' for Active; 'I' for Inactive)
REMARK    1  A    between atoms: N_7  and  C_12
REMARK    2  A    between atoms: C_9  and  C_10
REMARK    3  A    between atoms: N_11  and  N_20
REMARK    4  A    between atoms: C_12  and  C_13
REMARK    5  A    between atoms: C_21  and  C_23
REMARK                            x       y       z     vdW  Elec       q    Type
REMARK                         _______ _______ _______ _____ _____    ______ ____
ROOT
ATOM      1  C   UNL     1      43.224  20.710   4.171  0.00  0.00    -0.061 A 
ATOM      2  C   UNL     1      43.367  19.336   4.016  0.00  0.00    -0.060 A 
ATOM      3  C   UNL     1      44.473  18.664   4.547  0.00  0.00    -0.038 A 
ATOM      4  C   UNL     1      45.432  19.409   5.253  0.00  0.00    +0.050 A 
ATOM      5  C   UNL     1      45.285  20.786   5.460  0.00  0.00    +0.009 A 
ATOM      6  C   UNL     1      44.168  21.441   4.895  0.00  0.00    -0.052 A 
ATOM      7  N   UNL     1      46.628  19.039   5.840  0.00  0.00    -0.342 N 
ATOM      8  C   UNL     1      47.189  20.121   6.472  0.00  0.00    +0.015 A 
ATOM      9  C   UNL     1      46.384  21.224   6.266  0.00  0.00    +0.020 A 
ENDROOT
BRANCH   9  10
ATOM     10  C   UNL     1      46.616  22.554   6.779  0.00  0.00    +0.055 C 
ATOM     11  N   UNL     1      47.191  22.713   7.929  0.00  0.00    -0.187 NA
BRANCH  11  12
ATOM     12  N   UNL     1      47.364  24.005   8.338  0.00  0.00    -0.203 N 
ATOM     13  C   UNL     1      48.641  24.460   8.640  0.00  0.00    +0.263 C 
ATOM     14  O   UNL     1      49.667  23.798   8.562  0.00  0.00    -0.268 OA
ATOM     15  H   UNL     1      46.590  24.608   8.419  0.00  0.00    +0.000 HD
BRANCH  13  16
ATOM     16  C   UNL     1      48.731  25.891   9.054  0.00  0.00    +0.038 A 
ATOM     17  C   UNL     1      49.947  26.583   9.126  0.00  0.00    -0.049 A 
ATOM     18  C   UNL     1      49.968  27.924   9.522  0.00  0.00    -0.047 A 
ATOM     19  C   UNL     1      48.773  28.575   9.836  0.00  0.00    +0.018 A 
ATOM     20  C   UNL     1      47.557  27.905   9.746  0.00  0.00    -0.047 A 
ATOM     21  C   UNL     1      47.535  26.565   9.349  0.00  0.00    -0.049 A 
ATOM     22 BR   UNL     1      48.810  30.386  10.376  0.00  0.00    -0.050 Br
ENDBRANCH  13  16
ENDBRANCH  11  12
ENDBRANCH   9  10
BRANCH   7  23
ATOM     23  C   UNL     1      47.279  17.734   5.731  0.00  0.00    +0.048 C 
BRANCH  23  24
ATOM     24  C   UNL     1      46.716  16.744   6.720  0.00  0.00    -0.028 A 
ATOM     25  C   UNL     1      46.176  17.180   7.938  0.00  0.00    -0.056 A 
ATOM     26  C   UNL     1      45.754  16.259   8.898  0.00  0.00    -0.047 A 
ATOM     27  C   UNL     1      45.858  14.894   8.640  0.00  0.00    +0.018 A 
ATOM     28  C   UNL     1      46.343  14.443   7.414  0.00  0.00    -0.047 A 
ATOM     29  C   UNL     1      46.770  15.366   6.457  0.00  0.00    -0.056 A 
ATOM     30 BR   UNL     1      45.368  13.648   9.973  0.00  0.00    -0.050 Br
ENDBRANCH  23  24
ENDBRANCH   7  23
TORSDOF 5
ENDMDL
