MODEL 1
REMARK VINA RESULT:    -5.002      0.000      0.000
REMARK INTER + INTRA:          -6.529
REMARK INTER:                  -6.171
REMARK INTRA:                  -0.357
REMARK UNBOUND:                -0.357
REMARK  Name = 8d.sdf
REMARK  4 active torsions:
REMARK  status: ('A' for Active; 'I' for Inactive)
REMARK    1  A    between atoms: C_9  and  C_10
REMARK    2  A    between atoms: N_11  and  N_19
REMARK    3  A    between atoms: C_12  and  C_13
REMARK    4  A    between atoms: C_20  and  C_22
REMARK                            x       y       z     vdW  Elec       q    Type
REMARK                         _______ _______ _______ _____ _____    ______ ____
ROOT
ATOM      1  C   UNL     1      43.894  21.337   3.958  0.00  0.00    -0.061 A 
ATOM      2  C   UNL     1      43.412  20.051   3.758  0.00  0.00    -0.060 A 
ATOM      3  C   UNL     1      44.010  18.957   4.389  0.00  0.00    -0.037 A 
ATOM      4  C   UNL     1      45.121  19.184   5.224  0.00  0.00    +0.057 A 
ATOM      5  C   UNL     1      45.610  20.478   5.456  0.00  0.00    +0.009 A 
ATOM      6  C   UNL     1      44.985  21.566   4.806  0.00  0.00    -0.052 A 
ATOM      7  N   UNL     1      45.887  18.299   5.979  0.00  0.00    -0.282 N 
ATOM      8  C   UNL     1      46.855  19.032   6.638  0.00  0.00    +0.023 A 
ATOM      9  C   UNL     1      46.709  20.375   6.362  0.00  0.00    +0.020 A 
ATOM     10  C   UNL     1      45.732  16.893   6.077  0.00  0.00    +0.263 C 
ATOM     11  O   UNL     1      45.265  16.295   5.104  0.00  0.00    -0.267 OA
ENDROOT
BRANCH  10  12
ATOM     12  C   UNL     1      46.138  16.122   7.278  0.00  0.00    +0.040 A 
ATOM     13  C   UNL     1      46.786  14.886   7.141  0.00  0.00    -0.049 A 
ATOM     14  C   UNL     1      47.037  14.102   8.265  0.00  0.00    -0.061 A 
ATOM     15  C   UNL     1      46.685  14.571   9.529  0.00  0.00    -0.062 A 
ATOM     16  C   UNL     1      46.120  15.839   9.676  0.00  0.00    -0.061 A 
ATOM     17  C   UNL     1      45.854  16.622   8.553  0.00  0.00    -0.049 A 
ENDBRANCH  10  12
BRANCH   9  18
ATOM     18  C   UNL     1      47.549  21.429   6.901  0.00  0.00    +0.055 C 
ATOM     19  N   UNL     1      47.477  21.702   8.163  0.00  0.00    -0.187 NA
BRANCH  19  20
ATOM     20  N   UNL     1      48.290  22.700   8.630  0.00  0.00    -0.203 N 
ATOM     21  C   UNL     1      47.826  24.012   8.634  0.00  0.00    +0.263 C 
ATOM     22  O   UNL     1      46.716  24.371   8.247  0.00  0.00    -0.268 OA
ATOM     23  H   UNL     1      49.194  22.493   8.960  0.00  0.00    +0.000 HD
BRANCH  21  24
ATOM     24  C   UNL     1      48.760  25.034   9.188  0.00  0.00    +0.038 A 
ATOM     25  C   UNL     1      49.076  25.097  10.553  0.00  0.00    -0.049 A 
ATOM     26  C   UNL     1      49.930  26.096  11.031  0.00  0.00    -0.047 A 
ATOM     27  C   UNL     1      50.479  27.024  10.146  0.00  0.00    +0.018 A 
ATOM     28  C   UNL     1      50.208  26.946   8.782  0.00  0.00    -0.047 A 
ATOM     29  C   UNL     1      49.353  25.949   8.304  0.00  0.00    -0.049 A 
ATOM     30 BR   UNL     1      51.597  28.399  10.805  0.00  0.00    -0.050 Br
ENDBRANCH  21  24
ENDBRANCH  19  20
ENDBRANCH   9  18
TORSDOF 4
ENDMDL
