MODEL 1
REMARK VINA RESULT:    -9.291      0.000      0.000
REMARK INTER + INTRA:         -11.367
REMARK INTER:                 -10.921
REMARK INTRA:                  -0.447
REMARK UNBOUND:                -0.447
REMARK  Name = 9.sdf
REMARK  3 active torsions:
REMARK  status: ('A' for Active; 'I' for Inactive)
REMARK    1  A    between atoms: C_9  and  C_10
REMARK    2  A    between atoms: C_11  and  C_12
REMARK    3  A    between atoms: C_12  and  C_13
REMARK                            x       y       z     vdW  Elec       q    Type
REMARK                         _______ _______ _______ _____ _____    ______ ____
ROOT
ATOM      1  C   UNL     1      47.357  28.884   9.748  0.00  0.00    -0.061 A 
ATOM      2  C   UNL     1      48.555  29.492   9.392  0.00  0.00    -0.060 A 
ATOM      3  C   UNL     1      49.645  28.731   8.960  0.00  0.00    -0.038 A 
ATOM      4  C   UNL     1      49.484  27.341   8.888  0.00  0.00    +0.047 A 
ATOM      5  C   UNL     1      48.290  26.694   9.220  0.00  0.00    +0.007 A 
ATOM      6  C   UNL     1      47.214  27.493   9.672  0.00  0.00    -0.052 A 
ATOM      7  N   UNL     1      50.383  26.368   8.516  0.00  0.00    -0.360 N 
ATOM      8  C   UNL     1      49.808  25.128   8.604  0.00  0.00    +0.010 A 
ATOM      9  C   UNL     1      48.501  25.292   9.008  0.00  0.00    +0.000 A 
ATOM     10  H   UNL     1      51.309  26.539   8.228  0.00  0.00    +0.000 HD
ENDROOT
BRANCH   9  11
ATOM     11  C   UNL     1      47.600  24.194   9.175  0.00  0.00    -0.049 C 
ATOM     12  C   UNL     1      47.981  22.920   9.343  0.00  0.00    -0.014 C 
BRANCH  12  13
ATOM     13  C   UNL     1      46.995  21.816   9.469  0.00  0.00    +0.186 C 
ATOM     14  O   UNL     1      46.375  21.601  10.503  0.00  0.00    -0.287 OA
BRANCH  13  15
ATOM     15  C   UNL     1      46.825  20.949   8.271  0.00  0.00    +0.022 A 
ATOM     16  C   UNL     1      46.303  19.660   8.426  0.00  0.00    -0.051 A 
ATOM     17  C   UNL     1      46.161  18.828   7.313  0.00  0.00    -0.061 A 
ATOM     18  C   UNL     1      46.524  19.283   6.045  0.00  0.00    -0.062 A 
ATOM     19  C   UNL     1      47.017  20.576   5.881  0.00  0.00    -0.061 A 
ATOM     20  C   UNL     1      47.162  21.410   6.990  0.00  0.00    -0.051 A 
ENDBRANCH  13  15
ENDBRANCH  12  13
ENDBRANCH   9  11
TORSDOF 3
ENDMDL
