MODEL 1
REMARK VINA RESULT:    -7.020      0.000      0.000
REMARK INTER + INTRA:          -8.336
REMARK INTER:                  -7.840
REMARK INTRA:                  -0.495
REMARK UNBOUND:                -0.495
REMARK  Name = 0b.sdf
REMARK  2 active torsions:
REMARK  status: ('A' for Active; 'I' for Inactive)
REMARK    1  A    between atoms: N_7  and  C_10
REMARK    2  A    between atoms: C_10  and  C_11
REMARK                            x       y       z     vdW  Elec       q    Type
REMARK                         _______ _______ _______ _____ _____    ______ ____
ROOT
ATOM      1  C   UNL     1     -47.470  61.426   7.616  0.00  0.00    -0.061 A 
ATOM      2  C   UNL     1     -47.179  61.147   6.285  0.00  0.00    -0.060 A 
ATOM      3  C   UNL     1     -45.881  60.816   5.883  0.00  0.00    -0.038 A 
ATOM      4  C   UNL     1     -44.875  60.764   6.863  0.00  0.00    +0.049 A 
ATOM      5  C   UNL     1     -45.154  61.015   8.212  0.00  0.00    -0.000 A 
ATOM      6  C   UNL     1     -46.468  61.360   8.589  0.00  0.00    -0.053 A 
ATOM      7  N   UNL     1     -43.519  60.506   6.777  0.00  0.00    -0.342 N 
ATOM      8  C   UNL     1     -42.955  60.537   8.031  0.00  0.00    +0.006 A 
ATOM      9  C   UNL     1     -43.943  60.852   8.934  0.00  0.00    -0.036 A 
ENDROOT
BRANCH   7  10
ATOM     10  C   UNL     1     -42.748  60.364   5.546  0.00  0.00    +0.048 C 
BRANCH  10  11
ATOM     11  C   UNL     1     -42.697  58.940   5.059  0.00  0.00    -0.025 A 
ATOM     12  C   UNL     1     -41.697  58.066   5.496  0.00  0.00    -0.039 A 
ATOM     13  C   UNL     1     -41.688  56.767   5.015  0.00  0.00    +0.028 A 
ATOM     14  N   UNL     1     -42.601  56.282   4.149  0.00  0.00    -0.263 NA
ATOM     15  C   UNL     1     -43.559  57.138   3.735  0.00  0.00    +0.028 A 
ATOM     16  C   UNL     1     -43.650  58.454   4.156  0.00  0.00    -0.039 A 
ENDBRANCH  10  11
ENDBRANCH   7  10
TORSDOF 2
ENDMDL
MODEL 2
REMARK VINA RESULT:    -6.691      2.791      4.729
REMARK INTER + INTRA:          -7.969
REMARK INTER:                  -7.500
REMARK INTRA:                  -0.469
REMARK UNBOUND:                -0.495
REMARK  Name = 0b.sdf
REMARK  2 active torsions:
REMARK  status: ('A' for Active; 'I' for Inactive)
REMARK    1  A    between atoms: N_7  and  C_10
REMARK    2  A    between atoms: C_10  and  C_11
REMARK                            x       y       z     vdW  Elec       q    Type
REMARK                         _______ _______ _______ _____ _____    ______ ____
ROOT
ATOM      1  C   UNL     1     -43.350  60.614   6.406  0.00  0.00    -0.061 A 
ATOM      2  C   UNL     1     -42.459  59.655   5.937  0.00  0.00    -0.060 A 
ATOM      3  C   UNL     1     -42.861  58.689   5.008  0.00  0.00    -0.038 A 
ATOM      4  C   UNL     1     -44.190  58.716   4.554  0.00  0.00    +0.049 A 
ATOM      5  C   UNL     1     -45.094  59.691   4.994  0.00  0.00    -0.000 A 
ATOM      6  C   UNL     1     -44.668  60.645   5.940  0.00  0.00    -0.053 A 
ATOM      7  N   UNL     1     -44.882  57.894   3.683  0.00  0.00    -0.342 N 
ATOM      8  C   UNL     1     -46.169  58.354   3.527  0.00  0.00    +0.006 A 
ATOM      9  C   UNL     1     -46.326  59.460   4.328  0.00  0.00    -0.036 A 
ENDROOT
BRANCH   7  10
ATOM     10  C   UNL     1     -44.395  56.641   3.115  0.00  0.00    +0.048 C 
BRANCH  10  11
ATOM     11  C   UNL     1     -44.373  56.661   1.610  0.00  0.00    -0.025 A 
ATOM     12  C   UNL     1     -45.080  55.712   0.867  0.00  0.00    -0.039 A 
ATOM     13  C   UNL     1     -45.025  55.767  -0.515  0.00  0.00    +0.028 A 
ATOM     14  N   UNL     1     -44.329  56.697  -1.201  0.00  0.00    -0.263 NA
ATOM     15  C   UNL     1     -43.649  57.605  -0.471  0.00  0.00    +0.028 A 
ATOM     16  C   UNL     1     -43.640  57.631   0.914  0.00  0.00    -0.039 A 
ENDBRANCH  10  11
ENDBRANCH   7  10
TORSDOF 2
ENDMDL
MODEL 3
REMARK VINA RESULT:    -6.548      1.393      2.180
REMARK INTER + INTRA:          -7.809
REMARK INTER:                  -7.309
REMARK INTRA:                  -0.500
REMARK UNBOUND:                -0.495
REMARK  Name = 0b.sdf
REMARK  2 active torsions:
REMARK  status: ('A' for Active; 'I' for Inactive)
REMARK    1  A    between atoms: N_7  and  C_10
REMARK    2  A    between atoms: C_10  and  C_11
REMARK                            x       y       z     vdW  Elec       q    Type
REMARK                         _______ _______ _______ _____ _____    ______ ____
ROOT
ATOM      1  C   UNL     1     -45.047  61.389   8.571  0.00  0.00    -0.061 A 
ATOM      2  C   UNL     1     -45.476  61.384   7.249  0.00  0.00    -0.060 A 
ATOM      3  C   UNL     1     -44.767  60.689   6.262  0.00  0.00    -0.038 A 
ATOM      4  C   UNL     1     -43.610  59.989   6.644  0.00  0.00    +0.049 A 
ATOM      5  C   UNL     1     -43.178  59.960   7.975  0.00  0.00    -0.000 A 
ATOM      6  C   UNL     1     -43.903  60.679   8.948  0.00  0.00    -0.053 A 
ATOM      7  N   UNL     1     -42.697  59.252   5.912  0.00  0.00    -0.342 N 
ATOM      8  C   UNL     1     -41.741  58.725   6.749  0.00  0.00    +0.006 A 
ATOM      9  C   UNL     1     -42.014  59.150   8.028  0.00  0.00    -0.036 A 
ENDROOT
BRANCH   7  10
ATOM     10  C   UNL     1     -42.643  59.152   4.457  0.00  0.00    +0.048 C 
BRANCH  10  11
ATOM     11  C   UNL     1     -43.453  57.999   3.929  0.00  0.00    -0.025 A 
ATOM     12  C   UNL     1     -42.899  56.719   3.825  0.00  0.00    -0.039 A 
ATOM     13  C   UNL     1     -43.682  55.691   3.328  0.00  0.00    +0.028 A 
ATOM     14  N   UNL     1     -44.965  55.844   2.940  0.00  0.00    -0.263 NA
ATOM     15  C   UNL     1     -45.484  57.085   3.043  0.00  0.00    +0.028 A 
ATOM     16  C   UNL     1     -44.782  58.178   3.525  0.00  0.00    -0.039 A 
ENDBRANCH  10  11
ENDBRANCH   7  10
TORSDOF 2
ENDMDL
