MODEL 1
REMARK VINA RESULT:    -9.147      0.000      0.000
REMARK INTER + INTRA:         -13.214
REMARK INTER:                 -12.356
REMARK INTRA:                  -0.858
REMARK UNBOUND:                -0.858
REMARK  Name = 10a.sdf
REMARK  7 active torsions:
REMARK  status: ('A' for Active; 'I' for Inactive)
REMARK    1  A    between atoms: N_7  and  C_22
REMARK    2  A    between atoms: C_9  and  C_10
REMARK    3  A    between atoms: C_11  and  C_12
REMARK    4  A    between atoms: C_12  and  C_13
REMARK    5  A    between atoms: C_17  and  O_20
REMARK    6  A    between atoms: O_20  and  C_21
REMARK    7  A    between atoms: C_22  and  C_23
REMARK                            x       y       z     vdW  Elec       q    Type
REMARK                         _______ _______ _______ _____ _____    ______ ____
ROOT
ATOM      1  C   UNL     1     -46.627  61.766   7.897  0.00  0.00    -0.061 A 
ATOM      2  C   UNL     1     -47.555  61.419   6.923  0.00  0.00    -0.060 A 
ATOM      3  C   UNL     1     -47.181  60.654   5.813  0.00  0.00    -0.038 A 
ATOM      4  C   UNL     1     -45.844  60.236   5.710  0.00  0.00    +0.050 A 
ATOM      5  C   UNL     1     -44.900  60.540   6.699  0.00  0.00    +0.007 A 
ATOM      6  C   UNL     1     -45.303  61.328   7.799  0.00  0.00    -0.052 A 
ATOM      7  N   UNL     1     -45.182  59.519   4.728  0.00  0.00    -0.342 N 
ATOM      8  C   UNL     1     -43.876  59.304   5.107  0.00  0.00    +0.013 A 
ATOM      9  C   UNL     1     -43.669  59.922   6.322  0.00  0.00    +0.000 A 
ENDROOT
BRANCH   9  10
ATOM     10  C   UNL     1     -42.454  59.924   7.080  0.00  0.00    -0.049 C 
ATOM     11  C   UNL     1     -42.301  59.390   8.299  0.00  0.00    -0.014 C 
BRANCH  11  12
ATOM     12  C   UNL     1     -41.009  59.517   9.031  0.00  0.00    +0.186 C 
ATOM     13  O   UNL     1     -40.243  58.585   9.199  0.00  0.00    -0.287 OA
BRANCH  12  14
ATOM     14  C   UNL     1     -40.710  60.875   9.590  0.00  0.00    +0.022 A 
ATOM     15  C   UNL     1     -41.732  61.821   9.656  0.00  0.00    -0.047 A 
ATOM     16  C   UNL     1     -41.452  63.113  10.112  0.00  0.00    -0.019 A 
ATOM     17  C   UNL     1     -40.165  63.464  10.522  0.00  0.00    +0.120 A 
ATOM     18  C   UNL     1     -39.148  62.505  10.493  0.00  0.00    -0.019 A 
ATOM     19  C   UNL     1     -39.422  61.215  10.030  0.00  0.00    -0.047 A 
BRANCH  17  20
ATOM     20  O   UNL     1     -40.004  64.770  10.885  0.00  0.00    -0.495 OA
ATOM     21  C   UNL     1     -41.181  65.487  11.237  0.00  0.00    +0.079 C 
ENDBRANCH  17  20
ENDBRANCH  12  14
ENDBRANCH  11  12
ENDBRANCH   9  10
BRANCH   7  22
ATOM     22  C   UNL     1     -45.725  59.135   3.426  0.00  0.00    +0.048 C 
BRANCH  22  23
ATOM     23  C   UNL     1     -45.140  57.834   2.934  0.00  0.00    -0.028 A 
ATOM     24  C   UNL     1     -43.965  57.826   2.167  0.00  0.00    -0.056 A 
ATOM     25  C   UNL     1     -43.478  56.636   1.623  0.00  0.00    -0.047 A 
ATOM     26  C   UNL     1     -44.158  55.443   1.853  0.00  0.00    +0.018 A 
ATOM     27  C   UNL     1     -45.297  55.423   2.656  0.00  0.00    -0.047 A 
ATOM     28  C   UNL     1     -45.785  56.614   3.196  0.00  0.00    -0.056 A 
ATOM     29 BR   UNL     1     -43.549  53.846   1.046  0.00  0.00    -0.050 Br
ENDBRANCH  22  23
ENDBRANCH   7  22
TORSDOF 6
ENDMDL
MODEL 2
REMARK VINA RESULT:    -9.055      4.343      7.710
REMARK INTER + INTRA:         -13.089
REMARK INTER:                 -12.161
REMARK INTRA:                  -0.928
REMARK UNBOUND:                -0.858
REMARK  Name = 10a.sdf
REMARK  7 active torsions:
REMARK  status: ('A' for Active; 'I' for Inactive)
REMARK    1  A    between atoms: N_7  and  C_22
REMARK    2  A    between atoms: C_9  and  C_10
REMARK    3  A    between atoms: C_11  and  C_12
REMARK    4  A    between atoms: C_12  and  C_13
REMARK    5  A    between atoms: C_17  and  O_20
REMARK    6  A    between atoms: O_20  and  C_21
REMARK    7  A    between atoms: C_22  and  C_23
REMARK                            x       y       z     vdW  Elec       q    Type
REMARK                         _______ _______ _______ _____ _____    ______ ____
ROOT
ATOM      1  C   UNL     1     -44.676  56.178  -0.893  0.00  0.00    -0.061 A 
ATOM      2  C   UNL     1     -44.752  54.920  -1.477  0.00  0.00    -0.060 A 
ATOM      3  C   UNL     1     -44.306  53.782  -0.796  0.00  0.00    -0.038 A 
ATOM      4  C   UNL     1     -43.785  53.940   0.499  0.00  0.00    +0.050 A 
ATOM      5  C   UNL     1     -43.735  55.193   1.123  0.00  0.00    +0.007 A 
ATOM      6  C   UNL     1     -44.177  56.325   0.405  0.00  0.00    -0.052 A 
ATOM      7  N   UNL     1     -43.240  53.026   1.384  0.00  0.00    -0.342 N 
ATOM      8  C   UNL     1     -42.920  53.655   2.566  0.00  0.00    +0.013 A 
ATOM      9  C   UNL     1     -43.214  54.996   2.438  0.00  0.00    +0.000 A 
ENDROOT
BRANCH   9  10
ATOM     10  C   UNL     1     -43.052  56.003   3.444  0.00  0.00    -0.049 C 
ATOM     11  C   UNL     1     -43.215  57.319   3.255  0.00  0.00    -0.014 C 
BRANCH  11  12
ATOM     12  C   UNL     1     -42.945  58.287   4.355  0.00  0.00    +0.186 C 
ATOM     13  O   UNL     1     -41.863  58.385   4.907  0.00  0.00    -0.287 OA
BRANCH  12  14
ATOM     14  C   UNL     1     -44.109  59.131   4.779  0.00  0.00    +0.022 A 
ATOM     15  C   UNL     1     -43.965  59.981   5.875  0.00  0.00    -0.047 A 
ATOM     16  C   UNL     1     -45.062  60.724   6.324  0.00  0.00    -0.019 A 
ATOM     17  C   UNL     1     -46.295  60.640   5.677  0.00  0.00    +0.120 A 
ATOM     18  C   UNL     1     -46.430  59.817   4.554  0.00  0.00    -0.019 A 
ATOM     19  C   UNL     1     -45.338  59.068   4.107  0.00  0.00    -0.047 A 
BRANCH  17  20
ATOM     20  O   UNL     1     -47.304  61.363   6.247  0.00  0.00    -0.495 OA
ATOM     21  C   UNL     1     -47.350  61.385   7.669  0.00  0.00    +0.079 C 
ENDBRANCH  17  20
ENDBRANCH  12  14
ENDBRANCH  11  12
ENDBRANCH   9  10
BRANCH   7  22
ATOM     22  C   UNL     1     -42.932  51.626   1.099  0.00  0.00    +0.048 C 
BRANCH  22  23
ATOM     23  C   UNL     1     -41.719  51.486   0.212  0.00  0.00    -0.028 A 
ATOM     24  C   UNL     1     -40.482  52.016   0.607  0.00  0.00    -0.056 A 
ATOM     25  C   UNL     1     -39.384  51.980  -0.254  0.00  0.00    -0.047 A 
ATOM     26  C   UNL     1     -39.514  51.401  -1.514  0.00  0.00    +0.018 A 
ATOM     27  C   UNL     1     -40.720  50.823  -1.904  0.00  0.00    -0.047 A 
ATOM     28  C   UNL     1     -41.818  50.863  -1.043  0.00  0.00    -0.056 A 
ATOM     29 BR   UNL     1     -38.053  51.429  -2.713  0.00  0.00    -0.050 Br
ENDBRANCH  22  23
ENDBRANCH   7  22
TORSDOF 6
ENDMDL
MODEL 3
REMARK VINA RESULT:    -8.942      4.152      9.219
REMARK INTER + INTRA:         -12.936
REMARK INTER:                 -12.072
REMARK INTRA:                  -0.864
REMARK UNBOUND:                -0.858
REMARK  Name = 10a.sdf
REMARK  7 active torsions:
REMARK  status: ('A' for Active; 'I' for Inactive)
REMARK    1  A    between atoms: N_7  and  C_22
REMARK    2  A    between atoms: C_9  and  C_10
REMARK    3  A    between atoms: C_11  and  C_12
REMARK    4  A    between atoms: C_12  and  C_13
REMARK    5  A    between atoms: C_17  and  O_20
REMARK    6  A    between atoms: O_20  and  C_21
REMARK    7  A    between atoms: C_22  and  C_23
REMARK                            x       y       z     vdW  Elec       q    Type
REMARK                         _______ _______ _______ _____ _____    ______ ____
ROOT
ATOM      1  C   UNL     1     -46.838  61.432   6.479  0.00  0.00    -0.061 A 
ATOM      2  C   UNL     1     -46.410  61.656   7.781  0.00  0.00    -0.060 A 
ATOM      3  C   UNL     1     -45.264  61.028   8.281  0.00  0.00    -0.038 A 
ATOM      4  C   UNL     1     -44.549  60.168   7.430  0.00  0.00    +0.050 A 
ATOM      5  C   UNL     1     -44.939  59.958   6.101  0.00  0.00    +0.007 A 
ATOM      6  C   UNL     1     -46.109  60.593   5.631  0.00  0.00    -0.052 A 
ATOM      7  N   UNL     1     -43.426  59.390   7.649  0.00  0.00    -0.342 N 
ATOM      8  C   UNL     1     -43.060  58.760   6.481  0.00  0.00    +0.013 A 
ATOM      9  C   UNL     1     -43.975  59.090   5.504  0.00  0.00    +0.000 A 
ENDROOT
BRANCH   9  10
ATOM     10  C   UNL     1     -43.952  58.664   4.137  0.00  0.00    -0.049 C 
ATOM     11  C   UNL     1     -44.614  57.609   3.644  0.00  0.00    -0.014 C 
BRANCH  11  12
ATOM     12  C   UNL     1     -44.457  57.209   2.217  0.00  0.00    +0.186 C 
ATOM     13  O   UNL     1     -44.746  57.938   1.284  0.00  0.00    -0.287 OA
BRANCH  12  14
ATOM     14  C   UNL     1     -43.945  55.820   1.983  0.00  0.00    +0.022 A 
ATOM     15  C   UNL     1     -44.329  55.142   0.826  0.00  0.00    -0.047 A 
ATOM     16  C   UNL     1     -43.914  53.821   0.628  0.00  0.00    -0.019 A 
ATOM     17  C   UNL     1     -43.102  53.178   1.562  0.00  0.00    +0.120 A 
ATOM     18  C   UNL     1     -42.683  53.871   2.703  0.00  0.00    -0.019 A 
ATOM     19  C   UNL     1     -43.102  55.188   2.909  0.00  0.00    -0.047 A 
BRANCH  17  20
ATOM     20  O   UNL     1     -42.817  51.872   1.287  0.00  0.00    -0.495 OA
ATOM     21  C   UNL     1     -43.923  50.983   1.182  0.00  0.00    +0.079 C 
ENDBRANCH  17  20
ENDBRANCH  12  14
ENDBRANCH  11  12
ENDBRANCH   9  10
BRANCH   7  22
ATOM     22  C   UNL     1     -42.772  59.161   8.936  0.00  0.00    +0.048 C 
BRANCH  22  23
ATOM     23  C   UNL     1     -41.752  60.227   9.247  0.00  0.00    -0.028 A 
ATOM     24  C   UNL     1     -40.402  59.891   9.431  0.00  0.00    -0.056 A 
ATOM     25  C   UNL     1     -39.474  60.858   9.821  0.00  0.00    -0.047 A 
ATOM     26  C   UNL     1     -39.888  62.172  10.018  0.00  0.00    +0.018 A 
ATOM     27  C   UNL     1     -41.213  62.537   9.790  0.00  0.00    -0.047 A 
ATOM     28  C   UNL     1     -42.142  61.568   9.403  0.00  0.00    -0.056 A 
ATOM     29 BR   UNL     1     -38.651  63.464  10.630  0.00  0.00    -0.050 Br
ENDBRANCH  22  23
ENDBRANCH   7  22
TORSDOF 6
ENDMDL
