MODEL 1
REMARK VINA RESULT:    -7.042      0.000      0.000
REMARK INTER + INTRA:          -8.005
REMARK INTER:                  -7.865
REMARK INTRA:                  -0.140
REMARK UNBOUND:                -0.140
REMARK  Name = 17.sdf
REMARK  2 active torsions:
REMARK  status: ('A' for Active; 'I' for Inactive)
REMARK    1  A    between atoms: C_9  and  C_10
REMARK    2  A    between atoms: N_11  and  N_12
REMARK                            x       y       z     vdW  Elec       q    Type
REMARK                         _______ _______ _______ _____ _____    ______ ____
ROOT
ATOM      1  C   UNL     1     -47.371  61.529   8.075  0.00  0.00    -0.061 A 
ATOM      2  C   UNL     1     -47.671  61.334   6.729  0.00  0.00    -0.060 A 
ATOM      3  C   UNL     1     -46.687  60.925   5.824  0.00  0.00    -0.038 A 
ATOM      4  C   UNL     1     -45.394  60.728   6.320  0.00  0.00    +0.047 A 
ATOM      5  C   UNL     1     -45.060  60.917   7.664  0.00  0.00    +0.008 A 
ATOM      6  C   UNL     1     -46.074  61.322   8.556  0.00  0.00    -0.052 A 
ATOM      7  N   UNL     1     -44.250  60.340   5.665  0.00  0.00    -0.360 N 
ATOM      8  C   UNL     1     -43.205  60.286   6.541  0.00  0.00    +0.011 A 
ATOM      9  C   UNL     1     -43.665  60.634   7.799  0.00  0.00    +0.020 A 
ATOM     10  H   UNL     1     -44.193  60.131   4.704  0.00  0.00    +0.000 HD
ENDROOT
BRANCH   9  11
ATOM     11  C   UNL     1     -42.850  60.692   8.994  0.00  0.00    +0.055 C 
ATOM     12  N   UNL     1     -41.680  61.229   8.884  0.00  0.00    -0.186 NA
BRANCH  12  13
ATOM     13  N   UNL     1     -40.911  61.284  10.007  0.00  0.00    -0.191 N 
ATOM     14  C   UNL     1     -39.779  60.510  10.110  0.00  0.00    +0.317 C 
ATOM     15  O   UNL     1     -39.041  60.520  11.088  0.00  0.00    -0.251 OA
ATOM     16  N   UNL     1     -39.546  59.726   9.028  0.00  0.00    -0.312 N 
ATOM     17  H   UNL     1     -41.168  61.879  10.748  0.00  0.00    +0.000 HD
ATOM     18  H   UNL     1     -40.163  59.748   8.262  0.00  0.00    +0.000 HD
ATOM     19  H   UNL     1     -38.759  59.135   9.009  0.00  0.00    +0.000 HD
ENDBRANCH  12  13
ENDBRANCH   9  11
TORSDOF 2
ENDMDL
MODEL 2
REMARK VINA RESULT:    -6.807      4.522      5.827
REMARK INTER + INTRA:          -7.743
REMARK INTER:                  -7.545
REMARK INTRA:                  -0.197
REMARK UNBOUND:                -0.140
REMARK  Name = 17.sdf
REMARK  2 active torsions:
REMARK  status: ('A' for Active; 'I' for Inactive)
REMARK    1  A    between atoms: C_9  and  C_10
REMARK    2  A    between atoms: N_11  and  N_12
REMARK                            x       y       z     vdW  Elec       q    Type
REMARK                         _______ _______ _______ _____ _____    ______ ____
ROOT
ATOM      1  C   UNL     1     -43.904  60.687   8.448  0.00  0.00    -0.061 A 
ATOM      2  C   UNL     1     -45.078  61.428   8.556  0.00  0.00    -0.060 A 
ATOM      3  C   UNL     1     -46.026  61.429   7.529  0.00  0.00    -0.038 A 
ATOM      4  C   UNL     1     -45.746  60.666   6.390  0.00  0.00    +0.047 A 
ATOM      5  C   UNL     1     -44.577  59.914   6.249  0.00  0.00    +0.008 A 
ATOM      6  C   UNL     1     -43.642  59.925   7.305  0.00  0.00    -0.052 A 
ATOM      7  N   UNL     1     -46.485  60.493   5.245  0.00  0.00    -0.360 N 
ATOM      8  C   UNL     1     -45.823  59.668   4.382  0.00  0.00    +0.011 A 
ATOM      9  C   UNL     1     -44.631  59.280   4.969  0.00  0.00    +0.020 A 
ATOM     10  H   UNL     1     -47.363  60.904   5.071  0.00  0.00    +0.000 HD
ENDROOT
BRANCH   9  11
ATOM     11  C   UNL     1     -43.653  58.402   4.362  0.00  0.00    +0.055 C 
ATOM     12  N   UNL     1     -44.088  57.540   3.504  0.00  0.00    -0.186 NA
BRANCH  12  13
ATOM     13  N   UNL     1     -43.170  56.711   2.932  0.00  0.00    -0.191 N 
ATOM     14  C   UNL     1     -43.359  55.350   2.949  0.00  0.00    +0.317 C 
ATOM     15  O   UNL     1     -42.576  54.553   2.446  0.00  0.00    -0.251 OA
ATOM     16  N   UNL     1     -44.494  54.958   3.580  0.00  0.00    -0.312 N 
ATOM     17  H   UNL     1     -42.368  57.091   2.504  0.00  0.00    +0.000 HD
ATOM     18  H   UNL     1     -45.097  55.630   3.972  0.00  0.00    +0.000 HD
ATOM     19  H   UNL     1     -44.715  54.001   3.646  0.00  0.00    +0.000 HD
ENDBRANCH  12  13
ENDBRANCH   9  11
TORSDOF 2
ENDMDL
MODEL 3
REMARK VINA RESULT:    -6.771      3.891      5.463
REMARK INTER + INTRA:          -7.703
REMARK INTER:                  -7.479
REMARK INTRA:                  -0.224
REMARK UNBOUND:                -0.140
REMARK  Name = 17.sdf
REMARK  2 active torsions:
REMARK  status: ('A' for Active; 'I' for Inactive)
REMARK    1  A    between atoms: C_9  and  C_10
REMARK    2  A    between atoms: N_11  and  N_12
REMARK                            x       y       z     vdW  Elec       q    Type
REMARK                         _______ _______ _______ _____ _____    ______ ____
ROOT
ATOM      1  C   UNL     1     -46.521  61.030   6.550  0.00  0.00    -0.061 A 
ATOM      2  C   UNL     1     -46.247  61.457   7.847  0.00  0.00    -0.060 A 
ATOM      3  C   UNL     1     -44.969  61.319   8.396  0.00  0.00    -0.038 A 
ATOM      4  C   UNL     1     -43.981  60.733   7.596  0.00  0.00    +0.047 A 
ATOM      5  C   UNL     1     -44.223  60.293   6.293  0.00  0.00    +0.008 A 
ATOM      6  C   UNL     1     -45.520  60.451   5.762  0.00  0.00    -0.052 A 
ATOM      7  N   UNL     1     -42.662  60.472   7.878  0.00  0.00    -0.360 N 
ATOM      8  C   UNL     1     -42.064  59.875   6.806  0.00  0.00    +0.011 A 
ATOM      9  C   UNL     1     -42.999  59.748   5.794  0.00  0.00    +0.020 A 
ATOM     10  H   UNL     1     -42.213  60.684   8.729  0.00  0.00    +0.000 HD
ENDROOT
BRANCH   9  11
ATOM     11  C   UNL     1     -42.742  59.162   4.495  0.00  0.00    +0.055 C 
ATOM     12  N   UNL     1     -42.965  57.896   4.365  0.00  0.00    -0.186 NA
BRANCH  12  13
ATOM     13  N   UNL     1     -42.723  57.342   3.144  0.00  0.00    -0.191 N 
ATOM     14  C   UNL     1     -43.332  56.163   2.785  0.00  0.00    +0.317 C 
ATOM     15  O   UNL     1     -43.162  55.618   1.701  0.00  0.00    -0.251 OA
ATOM     16  N   UNL     1     -44.141  55.645   3.743  0.00  0.00    -0.312 N 
ATOM     17  H   UNL     1     -42.109  57.789   2.517  0.00  0.00    +0.000 HD
ATOM     18  H   UNL     1     -44.250  56.114   4.602  0.00  0.00    +0.000 HD
ATOM     19  H   UNL     1     -44.620  54.801   3.579  0.00  0.00    +0.000 HD
ENDBRANCH  12  13
ENDBRANCH   9  11
TORSDOF 2
ENDMDL
