MODEL 1
REMARK VINA RESULT:    -9.188      0.000      0.000
REMARK INTER + INTRA:         -11.256
REMARK INTER:                 -10.799
REMARK INTRA:                  -0.456
REMARK UNBOUND:                -0.456
REMARK  Name = 17d.sdf
REMARK  3 active torsions:
REMARK  status: ('A' for Active; 'I' for Inactive)
REMARK    1  A    between atoms: C_9  and  C_10
REMARK    2  A    between atoms: N_11  and  N_12
REMARK    3  A    between atoms: C_16  and  C_17
REMARK                            x       y       z     vdW  Elec       q    Type
REMARK                         _______ _______ _______ _____ _____    ______ ____
ROOT
ATOM      1  C   UNL     1     -46.615  61.774   7.820  0.00  0.00    -0.061 A 
ATOM      2  C   UNL     1     -47.519  61.336   6.860  0.00  0.00    -0.060 A 
ATOM      3  C   UNL     1     -47.092  60.589   5.760  0.00  0.00    -0.037 A 
ATOM      4  C   UNL     1     -45.722  60.289   5.640  0.00  0.00    +0.057 A 
ATOM      5  C   UNL     1     -44.793  60.716   6.602  0.00  0.00    +0.009 A 
ATOM      6  C   UNL     1     -45.255  61.472   7.702  0.00  0.00    -0.052 A 
ATOM      7  N   UNL     1     -45.038  59.531   4.690  0.00  0.00    -0.282 N 
ATOM      8  C   UNL     1     -43.698  59.549   5.027  0.00  0.00    +0.023 A 
ATOM      9  C   UNL     1     -43.512  60.241   6.204  0.00  0.00    +0.020 A 
ATOM     10  C   UNL     1     -45.580  58.841   3.579  0.00  0.00    +0.263 C 
ATOM     11  O   UNL     1     -46.658  59.218   3.127  0.00  0.00    -0.267 OA
ENDROOT
BRANCH  10  12
ATOM     12  C   UNL     1     -44.902  57.683   2.940  0.00  0.00    +0.040 A 
ATOM     13  C   UNL     1     -44.928  56.423   3.554  0.00  0.00    -0.049 A 
ATOM     14  C   UNL     1     -44.254  55.349   2.978  0.00  0.00    -0.061 A 
ATOM     15  C   UNL     1     -43.579  55.524   1.770  0.00  0.00    -0.062 A 
ATOM     16  C   UNL     1     -43.592  56.765   1.131  0.00  0.00    -0.061 A 
ATOM     17  C   UNL     1     -44.258  57.847   1.710  0.00  0.00    -0.049 A 
ENDBRANCH  10  12
BRANCH   9  18
ATOM     18  C   UNL     1     -42.229  60.419   6.853  0.00  0.00    +0.055 C 
ATOM     19  N   UNL     1     -42.135  60.086   8.100  0.00  0.00    -0.186 NA
BRANCH  19  20
ATOM     20  N   UNL     1     -40.913  60.268   8.681  0.00  0.00    -0.191 N 
ATOM     21  C   UNL     1     -40.744  61.144   9.727  0.00  0.00    +0.317 C 
ATOM     22  O   UNL     1     -39.679  61.290  10.309  0.00  0.00    -0.251 OA
ATOM     23  N   UNL     1     -41.861  61.848  10.047  0.00  0.00    -0.312 N 
ATOM     24  H   UNL     1     -40.138  59.762   8.345  0.00  0.00    +0.000 HD
ATOM     25  H   UNL     1     -42.697  61.696   9.550  0.00  0.00    +0.000 HD
ATOM     26  H   UNL     1     -41.834  62.507  10.777  0.00  0.00    +0.000 HD
ENDBRANCH  19  20
ENDBRANCH   9  18
TORSDOF 3
ENDMDL
MODEL 2
REMARK VINA RESULT:    -8.709      2.050      6.887
REMARK INTER + INTRA:         -10.693
REMARK INTER:                 -10.368
REMARK INTRA:                  -0.326
REMARK UNBOUND:                -0.456
REMARK  Name = 17d.sdf
REMARK  3 active torsions:
REMARK  status: ('A' for Active; 'I' for Inactive)
REMARK    1  A    between atoms: C_9  and  C_10
REMARK    2  A    between atoms: N_11  and  N_12
REMARK    3  A    between atoms: C_16  and  C_17
REMARK                            x       y       z     vdW  Elec       q    Type
REMARK                         _______ _______ _______ _____ _____    ______ ____
ROOT
ATOM      1  C   UNL     1     -46.854  61.002   5.944  0.00  0.00    -0.061 A 
ATOM      2  C   UNL     1     -46.817  61.338   7.292  0.00  0.00    -0.060 A 
ATOM      3  C   UNL     1     -45.666  61.125   8.053  0.00  0.00    -0.037 A 
ATOM      4  C   UNL     1     -44.540  60.559   7.427  0.00  0.00    +0.057 A 
ATOM      5  C   UNL     1     -44.553  60.219   6.066  0.00  0.00    +0.009 A 
ATOM      6  C   UNL     1     -45.733  60.443   5.323  0.00  0.00    -0.052 A 
ATOM      7  N   UNL     1     -43.264  60.290   7.924  0.00  0.00    -0.282 N 
ATOM      8  C   UNL     1     -42.527  59.729   6.899  0.00  0.00    +0.023 A 
ATOM      9  C   UNL     1     -43.271  59.693   5.740  0.00  0.00    +0.020 A 
ATOM     10  C   UNL     1     -42.771  60.543   9.228  0.00  0.00    +0.263 C 
ATOM     11  O   UNL     1     -43.578  60.631  10.149  0.00  0.00    -0.267 OA
ENDROOT
BRANCH  10  12
ATOM     12  C   UNL     1     -41.324  60.705   9.524  0.00  0.00    +0.040 A 
ATOM     13  C   UNL     1     -40.469  59.594   9.500  0.00  0.00    -0.049 A 
ATOM     14  C   UNL     1     -39.123  59.739   9.823  0.00  0.00    -0.061 A 
ATOM     15  C   UNL     1     -38.619  61.001  10.138  0.00  0.00    -0.062 A 
ATOM     16  C   UNL     1     -39.456  62.118  10.114  0.00  0.00    -0.061 A 
ATOM     17  C   UNL     1     -40.810  61.975   9.801  0.00  0.00    -0.049 A 
ENDBRANCH  10  12
BRANCH   9  18
ATOM     18  C   UNL     1     -42.783  59.196   4.470  0.00  0.00    +0.055 C 
ATOM     19  N   UNL     1     -43.219  58.047   4.067  0.00  0.00    -0.186 NA
BRANCH  19  20
ATOM     20  N   UNL     1     -42.739  57.609   2.866  0.00  0.00    -0.191 N 
ATOM     21  C   UNL     1     -43.586  57.162   1.880  0.00  0.00    +0.317 C 
ATOM     22  O   UNL     1     -43.198  56.817   0.773  0.00  0.00    -0.251 OA
ATOM     23  N   UNL     1     -44.893  57.122   2.248  0.00  0.00    -0.312 N 
ATOM     24  H   UNL     1     -41.768  57.612   2.703  0.00  0.00    +0.000 HD
ATOM     25  H   UNL     1     -45.160  57.410   3.150  0.00  0.00    +0.000 HD
ATOM     26  H   UNL     1     -45.574  56.806   1.611  0.00  0.00    +0.000 HD
ENDBRANCH  19  20
ENDBRANCH   9  18
TORSDOF 3
ENDMDL
MODEL 3
REMARK VINA RESULT:    -7.898      3.035      7.623
REMARK INTER + INTRA:          -9.740
REMARK INTER:                  -9.629
REMARK INTRA:                  -0.111
REMARK UNBOUND:                -0.456
REMARK  Name = 17d.sdf
REMARK  3 active torsions:
REMARK  status: ('A' for Active; 'I' for Inactive)
REMARK    1  A    between atoms: C_9  and  C_10
REMARK    2  A    between atoms: N_11  and  N_12
REMARK    3  A    between atoms: C_16  and  C_17
REMARK                            x       y       z     vdW  Elec       q    Type
REMARK                         _______ _______ _______ _____ _____    ______ ____
ROOT
ATOM      1  C   UNL     1     -40.898  56.315   4.826  0.00  0.00    -0.061 A 
ATOM      2  C   UNL     1     -40.636  57.333   5.734  0.00  0.00    -0.060 A 
ATOM      3  C   UNL     1     -41.594  58.309   6.013  0.00  0.00    -0.037 A 
ATOM      4  C   UNL     1     -42.836  58.243   5.353  0.00  0.00    +0.057 A 
ATOM      5  C   UNL     1     -43.123  57.219   4.437  0.00  0.00    +0.009 A 
ATOM      6  C   UNL     1     -42.132  56.248   4.173  0.00  0.00    -0.052 A 
ATOM      7  N   UNL     1     -43.974  59.040   5.477  0.00  0.00    -0.282 N 
ATOM      8  C   UNL     1     -44.923  58.552   4.599  0.00  0.00    +0.023 A 
ATOM      9  C   UNL     1     -44.450  57.424   3.964  0.00  0.00    +0.020 A 
ATOM     10  C   UNL     1     -44.168  60.145   6.341  0.00  0.00    +0.263 C 
ATOM     11  O   UNL     1     -43.178  60.749   6.746  0.00  0.00    -0.267 OA
ENDROOT
BRANCH  10  12
ATOM     12  C   UNL     1     -45.514  60.601   6.776  0.00  0.00    +0.040 A 
ATOM     13  C   UNL     1     -45.839  60.639   8.139  0.00  0.00    -0.049 A 
ATOM     14  C   UNL     1     -47.115  61.023   8.544  0.00  0.00    -0.061 A 
ATOM     15  C   UNL     1     -48.059  61.401   7.589  0.00  0.00    -0.062 A 
ATOM     16  C   UNL     1     -47.723  61.411   6.234  0.00  0.00    -0.061 A 
ATOM     17  C   UNL     1     -46.448  61.018   5.823  0.00  0.00    -0.049 A 
ENDBRANCH  10  12
BRANCH   9  18
ATOM     18  C   UNL     1     -45.208  56.647   3.006  0.00  0.00    +0.055 C 
ATOM     19  N   UNL     1     -44.693  56.471   1.833  0.00  0.00    -0.186 NA
BRANCH  19  20
ATOM     20  N   UNL     1     -45.434  55.734   0.953  0.00  0.00    -0.191 N 
ATOM     21  C   UNL     1     -45.177  55.766  -0.396  0.00  0.00    +0.317 C 
ATOM     22  O   UNL     1     -45.781  55.077  -1.207  0.00  0.00    -0.251 OA
ATOM     23  N   UNL     1     -44.204  56.642  -0.756  0.00  0.00    -0.312 N 
ATOM     24  H   UNL     1     -46.166  55.170   1.293  0.00  0.00    +0.000 HD
ATOM     25  H   UNL     1     -43.744  57.176  -0.068  0.00  0.00    +0.000 HD
ATOM     26  H   UNL     1     -43.957  56.742  -1.703  0.00  0.00    +0.000 HD
ENDBRANCH  19  20
ENDBRANCH   9  18
TORSDOF 3
ENDMDL
