MODEL 1
REMARK VINA RESULT:    -9.131      0.000      0.000
REMARK INTER + INTRA:         -12.278
REMARK INTER:                 -11.801
REMARK INTRA:                  -0.478
REMARK UNBOUND:                -0.478
REMARK  Name = 17f.sdf
REMARK  5 active torsions:
REMARK  status: ('A' for Active; 'I' for Inactive)
REMARK    1  A    between atoms: N_7  and  C_11
REMARK    2  A    between atoms: C_9  and  C_10
REMARK    3  A    between atoms: C_11  and  C_12
REMARK    4  A    between atoms: C_12  and  C_13
REMARK    5  A    between atoms: N_21  and  N_22
REMARK                            x       y       z     vdW  Elec       q    Type
REMARK                         _______ _______ _______ _____ _____    ______ ____
ROOT
ATOM      1  C   UNL     1     -44.324  56.711  -1.450  0.00  0.00    -0.061 A 
ATOM      2  C   UNL     1     -43.890  57.857  -0.792  0.00  0.00    -0.060 A 
ATOM      3  C   UNL     1     -43.585  57.836   0.575  0.00  0.00    -0.038 A 
ATOM      4  C   UNL     1     -43.699  56.614   1.256  0.00  0.00    +0.050 A 
ATOM      5  C   UNL     1     -44.004  55.426   0.583  0.00  0.00    +0.009 A 
ATOM      6  C   UNL     1     -44.370  55.488  -0.779  0.00  0.00    -0.052 A 
ATOM      7  N   UNL     1     -43.580  56.289   2.595  0.00  0.00    -0.338 N 
ATOM      8  C   UNL     1     -43.562  54.923   2.738  0.00  0.00    +0.015 A 
ATOM      9  C   UNL     1     -43.786  54.353   1.499  0.00  0.00    +0.020 A 
ENDROOT
BRANCH   9  10
ATOM     10  C   UNL     1     -43.743  52.945   1.167  0.00  0.00    +0.055 C 
ATOM     11  N   UNL     1     -43.069  52.129   1.915  0.00  0.00    -0.186 NA
BRANCH  11  12
ATOM     12  N   UNL     1     -42.999  50.848   1.429  0.00  0.00    -0.191 N 
ATOM     13  C   UNL     1     -41.810  50.165   1.391  0.00  0.00    +0.317 C 
ATOM     14  O   UNL     1     -41.682  49.074   0.852  0.00  0.00    -0.251 OA
ATOM     15  N   UNL     1     -40.789  50.804   2.012  0.00  0.00    -0.312 N 
ATOM     16  H   UNL     1     -43.818  50.412   1.100  0.00  0.00    +0.000 HD
ATOM     17  H   UNL     1     -40.940  51.682   2.431  0.00  0.00    +0.000 HD
ATOM     18  H   UNL     1     -39.896  50.389   2.044  0.00  0.00    +0.000 HD
ENDBRANCH  11  12
ENDBRANCH   9  10
BRANCH   7  19
ATOM     19  C   UNL     1     -43.703  57.222   3.715  0.00  0.00    +0.086 C 
BRANCH  19  20
ATOM     20  C   UNL     1     -45.049  57.899   3.833  0.00  0.00    +0.183 C 
ATOM     21  O   UNL     1     -46.017  57.603   3.143  0.00  0.00    -0.290 OA
BRANCH  20  22
ATOM     22  C   UNL     1     -45.204  58.978   4.869  0.00  0.00    +0.019 A 
ATOM     23  C   UNL     1     -44.479  58.994   6.068  0.00  0.00    -0.050 A 
ATOM     24  C   UNL     1     -44.728  59.980   7.031  0.00  0.00    -0.047 A 
ATOM     25  C   UNL     1     -45.696  60.955   6.796  0.00  0.00    +0.018 A 
ATOM     26  C   UNL     1     -46.391  60.979   5.591  0.00  0.00    -0.047 A 
ATOM     27  C   UNL     1     -46.141  59.995   4.627  0.00  0.00    -0.050 A 
ATOM     28 BR   UNL     1     -46.089  62.233   8.132  0.00  0.00    -0.050 Br
ENDBRANCH  20  22
ENDBRANCH  19  20
ENDBRANCH   7  19
TORSDOF 5
ENDMDL
MODEL 2
REMARK VINA RESULT:    -8.695      5.228      9.267
REMARK INTER + INTRA:         -11.714
REMARK INTER:                 -11.080
REMARK INTRA:                  -0.634
REMARK UNBOUND:                -0.478
REMARK  Name = 17f.sdf
REMARK  5 active torsions:
REMARK  status: ('A' for Active; 'I' for Inactive)
REMARK    1  A    between atoms: N_7  and  C_11
REMARK    2  A    between atoms: C_9  and  C_10
REMARK    3  A    between atoms: C_11  and  C_12
REMARK    4  A    between atoms: C_12  and  C_13
REMARK    5  A    between atoms: N_21  and  N_22
REMARK                            x       y       z     vdW  Elec       q    Type
REMARK                         _______ _______ _______ _____ _____    ______ ____
ROOT
ATOM      1  C   UNL     1     -46.385  61.897   8.200  0.00  0.00    -0.061 A 
ATOM      2  C   UNL     1     -46.835  61.020   7.219  0.00  0.00    -0.060 A 
ATOM      3  C   UNL     1     -45.950  60.168   6.548  0.00  0.00    -0.038 A 
ATOM      4  C   UNL     1     -44.596  60.200   6.918  0.00  0.00    +0.050 A 
ATOM      5  C   UNL     1     -44.150  60.976   7.992  0.00  0.00    +0.009 A 
ATOM      6  C   UNL     1     -45.050  61.873   8.607  0.00  0.00    -0.052 A 
ATOM      7  N   UNL     1     -43.480  59.579   6.390  0.00  0.00    -0.338 N 
ATOM      8  C   UNL     1     -42.412  59.752   7.236  0.00  0.00    +0.015 A 
ATOM      9  C   UNL     1     -42.803  60.586   8.265  0.00  0.00    +0.020 A 
ENDROOT
BRANCH   9  10
ATOM     10  C   UNL     1     -42.032  60.949   9.435  0.00  0.00    +0.055 C 
ATOM     11  N   UNL     1     -40.881  61.528   9.290  0.00  0.00    -0.186 NA
BRANCH  11  12
ATOM     12  N   UNL     1     -40.191  61.707  10.462  0.00  0.00    -0.191 N 
ATOM     13  C   UNL     1     -38.938  61.176  10.638  0.00  0.00    +0.317 C 
ATOM     14  O   UNL     1     -38.343  61.205  11.707  0.00  0.00    -0.251 OA
ATOM     15  N   UNL     1     -38.412  60.623   9.518  0.00  0.00    -0.312 N 
ATOM     16  H   UNL     1     -40.603  62.225  11.190  0.00  0.00    +0.000 HD
ATOM     17  H   UNL     1     -38.930  60.622   8.680  0.00  0.00    +0.000 HD
ATOM     18  H   UNL     1     -37.514  60.221   9.543  0.00  0.00    +0.000 HD
ENDBRANCH  11  12
ENDBRANCH   9  10
BRANCH   7  19
ATOM     19  C   UNL     1     -43.365  59.035   5.036  0.00  0.00    +0.086 C 
BRANCH  19  20
ATOM     20  C   UNL     1     -43.908  57.635   4.865  0.00  0.00    +0.183 C 
ATOM     21  O   UNL     1     -44.250  56.924   5.802  0.00  0.00    -0.290 OA
BRANCH  20  22
ATOM     22  C   UNL     1     -44.050  57.103   3.466  0.00  0.00    +0.019 A 
ATOM     23  C   UNL     1     -43.359  57.642   2.372  0.00  0.00    -0.050 A 
ATOM     24  C   UNL     1     -43.596  57.158   1.079  0.00  0.00    -0.047 A 
ATOM     25  C   UNL     1     -44.517  56.131   0.877  0.00  0.00    +0.018 A 
ATOM     26  C   UNL     1     -45.175  55.555   1.959  0.00  0.00    -0.047 A 
ATOM     27  C   UNL     1     -44.937  56.037   3.251  0.00  0.00    -0.050 A 
ATOM     28 BR   UNL     1     -44.897  55.539  -0.877  0.00  0.00    -0.050 Br
ENDBRANCH  20  22
ENDBRANCH  19  20
ENDBRANCH   7  19
TORSDOF 5
ENDMDL
MODEL 3
REMARK VINA RESULT:    -8.619      4.543      8.305
REMARK INTER + INTRA:         -11.616
REMARK INTER:                 -10.888
REMARK INTRA:                  -0.729
REMARK UNBOUND:                -0.478
REMARK  Name = 17f.sdf
REMARK  5 active torsions:
REMARK  status: ('A' for Active; 'I' for Inactive)
REMARK    1  A    between atoms: N_7  and  C_11
REMARK    2  A    between atoms: C_9  and  C_10
REMARK    3  A    between atoms: C_11  and  C_12
REMARK    4  A    between atoms: C_12  and  C_13
REMARK    5  A    between atoms: N_21  and  N_22
REMARK                            x       y       z     vdW  Elec       q    Type
REMARK                         _______ _______ _______ _____ _____    ______ ____
ROOT
ATOM      1  C   UNL     1     -45.838  61.193   6.323  0.00  0.00    -0.061 A 
ATOM      2  C   UNL     1     -46.588  60.716   5.254  0.00  0.00    -0.060 A 
ATOM      3  C   UNL     1     -46.111  59.683   4.438  0.00  0.00    -0.038 A 
ATOM      4  C   UNL     1     -44.865  59.118   4.751  0.00  0.00    +0.050 A 
ATOM      5  C   UNL     1     -44.159  59.493   5.899  0.00  0.00    +0.009 A 
ATOM      6  C   UNL     1     -44.631  60.580   6.666  0.00  0.00    -0.052 A 
ATOM      7  N   UNL     1     -44.085  58.182   4.098  0.00  0.00    -0.338 N 
ATOM      8  C   UNL     1     -43.050  57.794   4.912  0.00  0.00    +0.015 A 
ATOM      9  C   UNL     1     -43.087  58.563   6.060  0.00  0.00    +0.020 A 
ENDROOT
BRANCH   9  10
ATOM     10  C   UNL     1     -42.252  58.420   7.233  0.00  0.00    +0.055 C 
ATOM     11  N   UNL     1     -41.246  59.219   7.405  0.00  0.00    -0.186 NA
BRANCH  11  12
ATOM     12  N   UNL     1     -40.458  58.905   8.483  0.00  0.00    -0.191 N 
ATOM     13  C   UNL     1     -40.147  59.844   9.434  0.00  0.00    +0.317 C 
ATOM     14  O   UNL     1     -39.349  59.641  10.340  0.00  0.00    -0.251 OA
ATOM     15  N   UNL     1     -40.809  61.017   9.287  0.00  0.00    -0.312 N 
ATOM     16  H   UNL     1     -40.109  57.990   8.575  0.00  0.00    +0.000 HD
ATOM     17  H   UNL     1     -41.442  61.135   8.542  0.00  0.00    +0.000 HD
ATOM     18  H   UNL     1     -40.657  61.751   9.926  0.00  0.00    +0.000 HD
ENDBRANCH  11  12
ENDBRANCH   9  10
BRANCH   7  19
ATOM     19  C   UNL     1     -44.179  57.832   2.679  0.00  0.00    +0.086 C 
BRANCH  19  20
ATOM     20  C   UNL     1     -45.037  56.626   2.378  0.00  0.00    +0.183 C 
ATOM     21  O   UNL     1     -46.253  56.605   2.534  0.00  0.00    -0.290 OA
BRANCH  20  22
ATOM     22  C   UNL     1     -44.357  55.396   1.842  0.00  0.00    +0.019 A 
ATOM     23  C   UNL     1     -43.431  54.652   2.586  0.00  0.00    -0.050 A 
ATOM     24  C   UNL     1     -42.768  53.565   2.003  0.00  0.00    -0.047 A 
ATOM     25  C   UNL     1     -43.033  53.215   0.680  0.00  0.00    +0.018 A 
ATOM     26  C   UNL     1     -43.984  53.915  -0.056  0.00  0.00    -0.047 A 
ATOM     27  C   UNL     1     -44.648  55.001   0.527  0.00  0.00    -0.050 A 
ATOM     28 BR   UNL     1     -42.074  51.801  -0.129  0.00  0.00    -0.050 Br
ENDBRANCH  20  22
ENDBRANCH  19  20
ENDBRANCH   7  19
TORSDOF 5
ENDMDL
