MODEL 1
REMARK VINA RESULT:    -8.389      0.000      0.000
REMARK INTER + INTRA:         -11.298
REMARK INTER:                 -10.841
REMARK INTRA:                  -0.457
REMARK UNBOUND:                -0.457
REMARK  Name = 17g.sdf
REMARK  6 active torsions:
REMARK  status: ('A' for Active; 'I' for Inactive)
REMARK    1  A    between atoms: N_7  and  C_16
REMARK    2  A    between atoms: C_9  and  C_10
REMARK    3  A    between atoms: N_11  and  N_12
REMARK    4  A    between atoms: C_16  and  C_17
REMARK    5  A    between atoms: C_20  and  O_23
REMARK    6  A    between atoms: O_23  and  C_24
REMARK                            x       y       z     vdW  Elec       q    Type
REMARK                         _______ _______ _______ _____ _____    ______ ____
ROOT
ATOM      1  C   UNL     1     -46.730  61.977   7.997  0.00  0.00    -0.061 A 
ATOM      2  C   UNL     1     -47.678  61.427   7.142  0.00  0.00    -0.060 A 
ATOM      3  C   UNL     1     -47.295  60.621   6.066  0.00  0.00    -0.038 A 
ATOM      4  C   UNL     1     -45.925  60.372   5.871  0.00  0.00    +0.050 A 
ATOM      5  C   UNL     1     -44.957  60.877   6.747  0.00  0.00    +0.009 A 
ATOM      6  C   UNL     1     -45.372  61.702   7.818  0.00  0.00    -0.052 A 
ATOM      7  N   UNL     1     -45.252  59.670   4.888  0.00  0.00    -0.342 N 
ATOM      8  C   UNL     1     -43.908  59.657   5.167  0.00  0.00    +0.015 A 
ATOM      9  C   UNL     1     -43.684  60.391   6.316  0.00  0.00    +0.020 A 
ENDROOT
BRANCH   9  10
ATOM     10  C   UNL     1     -42.398  60.607   6.944  0.00  0.00    +0.055 C 
ATOM     11  N   UNL     1     -42.255  60.332   8.201  0.00  0.00    -0.186 NA
BRANCH  11  12
ATOM     12  N   UNL     1     -41.014  60.585   8.717  0.00  0.00    -0.191 N 
ATOM     13  C   UNL     1     -40.819  61.552   9.678  0.00  0.00    +0.317 C 
ATOM     14  O   UNL     1     -39.732  61.778  10.188  0.00  0.00    -0.251 OA
ATOM     15  N   UNL     1     -41.944  62.236  10.004  0.00  0.00    -0.312 N 
ATOM     16  H   UNL     1     -40.242  60.065   8.396  0.00  0.00    +0.000 HD
ATOM     17  H   UNL     1     -42.797  62.018   9.566  0.00  0.00    +0.000 HD
ATOM     18  H   UNL     1     -41.905  62.952  10.679  0.00  0.00    +0.000 HD
ENDBRANCH  11  12
ENDBRANCH   9  10
BRANCH   7  19
ATOM     19  C   UNL     1     -45.826  59.120   3.661  0.00  0.00    +0.048 C 
BRANCH  19  20
ATOM     20  C   UNL     1     -45.022  57.959   3.135  0.00  0.00    -0.028 A 
ATOM     21  C   UNL     1     -44.429  58.027   1.870  0.00  0.00    -0.053 A 
ATOM     22  C   UNL     1     -43.800  56.907   1.324  0.00  0.00    -0.020 A 
ATOM     23  C   UNL     1     -43.725  55.711   2.038  0.00  0.00    +0.120 A 
ATOM     24  C   UNL     1     -44.254  55.652   3.325  0.00  0.00    -0.020 A 
ATOM     25  C   UNL     1     -44.901  56.770   3.870  0.00  0.00    -0.053 A 
BRANCH  23  26
ATOM     26  O   UNL     1     -43.178  54.672   1.339  0.00  0.00    -0.495 OA
ATOM     27  C   UNL     1     -42.594  53.616   2.088  0.00  0.00    +0.079 C 
ENDBRANCH  23  26
ENDBRANCH  19  20
ENDBRANCH   7  19
TORSDOF 5
ENDMDL
MODEL 2
REMARK VINA RESULT:    -8.179      1.940      7.727
REMARK INTER + INTRA:         -11.026
REMARK INTER:                 -10.263
REMARK INTRA:                  -0.763
REMARK UNBOUND:                -0.457
REMARK  Name = 17g.sdf
REMARK  6 active torsions:
REMARK  status: ('A' for Active; 'I' for Inactive)
REMARK    1  A    between atoms: N_7  and  C_16
REMARK    2  A    between atoms: C_9  and  C_10
REMARK    3  A    between atoms: N_11  and  N_12
REMARK    4  A    between atoms: C_16  and  C_17
REMARK    5  A    between atoms: C_20  and  O_23
REMARK    6  A    between atoms: O_23  and  C_24
REMARK                            x       y       z     vdW  Elec       q    Type
REMARK                         _______ _______ _______ _____ _____    ______ ____
ROOT
ATOM      1  C   UNL     1     -46.675  61.318   6.078  0.00  0.00    -0.061 A 
ATOM      2  C   UNL     1     -46.556  61.698   7.409  0.00  0.00    -0.060 A 
ATOM      3  C   UNL     1     -45.419  61.366   8.153  0.00  0.00    -0.038 A 
ATOM      4  C   UNL     1     -44.392  60.643   7.520  0.00  0.00    +0.050 A 
ATOM      5  C   UNL     1     -44.472  60.292   6.166  0.00  0.00    +0.009 A 
ATOM      6  C   UNL     1     -45.640  60.627   5.444  0.00  0.00    -0.052 A 
ATOM      7  N   UNL     1     -43.197  60.138   7.998  0.00  0.00    -0.342 N 
ATOM      8  C   UNL     1     -42.498  59.555   6.971  0.00  0.00    +0.015 A 
ATOM      9  C   UNL     1     -43.253  59.633   5.816  0.00  0.00    +0.020 A 
ENDROOT
BRANCH   9  10
ATOM     10  C   UNL     1     -42.860  59.141   4.513  0.00  0.00    +0.055 C 
ATOM     11  N   UNL     1     -43.100  57.907   4.205  0.00  0.00    -0.186 NA
BRANCH  11  12
ATOM     12  N   UNL     1     -42.677  57.521   2.963  0.00  0.00    -0.191 N 
ATOM     13  C   UNL     1     -43.572  57.211   1.964  0.00  0.00    +0.317 C 
ATOM     14  O   UNL     1     -43.230  56.900   0.833  0.00  0.00    -0.251 OA
ATOM     15  N   UNL     1     -44.870  57.276   2.349  0.00  0.00    -0.312 N 
ATOM     16  H   UNL     1     -41.712  57.465   2.778  0.00  0.00    +0.000 HD
ATOM     17  H   UNL     1     -45.097  57.531   3.272  0.00  0.00    +0.000 HD
ATOM     18  H   UNL     1     -45.586  57.066   1.706  0.00  0.00    +0.000 HD
ENDBRANCH  11  12
ENDBRANCH   9  10
BRANCH   7  19
ATOM     19  C   UNL     1     -42.764  60.099   9.393  0.00  0.00    +0.048 C 
BRANCH  19  20
ATOM     20  C   UNL     1     -41.556  60.968   9.631  0.00  0.00    -0.028 A 
ATOM     21  C   UNL     1     -40.290  60.393   9.781  0.00  0.00    -0.053 A 
ATOM     22  C   UNL     1     -39.194  61.181  10.135  0.00  0.00    -0.020 A 
ATOM     23  C   UNL     1     -39.332  62.557  10.319  0.00  0.00    +0.120 A 
ATOM     24  C   UNL     1     -40.574  63.150  10.108  0.00  0.00    -0.020 A 
ATOM     25  C   UNL     1     -41.681  62.360   9.768  0.00  0.00    -0.053 A 
BRANCH  23  26
ATOM     26  O   UNL     1     -38.203  63.181  10.768  0.00  0.00    -0.495 OA
ATOM     27  C   UNL     1     -37.210  63.508   9.806  0.00  0.00    +0.079 C 
ENDBRANCH  23  26
ENDBRANCH  19  20
ENDBRANCH   7  19
TORSDOF 5
ENDMDL
MODEL 3
REMARK VINA RESULT:    -8.113      3.970      8.608
REMARK INTER + INTRA:         -10.941
REMARK INTER:                 -10.377
REMARK INTRA:                  -0.564
REMARK UNBOUND:                -0.457
REMARK  Name = 17g.sdf
REMARK  6 active torsions:
REMARK  status: ('A' for Active; 'I' for Inactive)
REMARK    1  A    between atoms: N_7  and  C_16
REMARK    2  A    between atoms: C_9  and  C_10
REMARK    3  A    between atoms: N_11  and  N_12
REMARK    4  A    between atoms: C_16  and  C_17
REMARK    5  A    between atoms: C_20  and  O_23
REMARK    6  A    between atoms: O_23  and  C_24
REMARK                            x       y       z     vdW  Elec       q    Type
REMARK                         _______ _______ _______ _____ _____    ______ ____
ROOT
ATOM      1  C   UNL     1     -44.304  56.925  -0.939  0.00  0.00    -0.061 A 
ATOM      2  C   UNL     1     -43.850  58.190  -0.588  0.00  0.00    -0.060 A 
ATOM      3  C   UNL     1     -43.353  58.446   0.694  0.00  0.00    -0.038 A 
ATOM      4  C   UNL     1     -43.316  57.390   1.621  0.00  0.00    +0.050 A 
ATOM      5  C   UNL     1     -43.724  56.096   1.273  0.00  0.00    +0.009 A 
ATOM      6  C   UNL     1     -44.237  55.870  -0.025  0.00  0.00    -0.052 A 
ATOM      7  N   UNL     1     -42.935  57.349   2.949  0.00  0.00    -0.342 N 
ATOM      8  C   UNL     1     -43.018  56.060   3.414  0.00  0.00    +0.015 A 
ATOM      9  C   UNL     1     -43.500  55.251   2.403  0.00  0.00    +0.020 A 
ENDROOT
BRANCH   9  10
ATOM     10  C   UNL     1     -43.720  53.824   2.494  0.00  0.00    +0.055 C 
ATOM     11  N   UNL     1     -43.030  53.028   1.742  0.00  0.00    -0.186 NA
BRANCH  11  12
ATOM     12  N   UNL     1     -43.318  51.698   1.879  0.00  0.00    -0.191 N 
ATOM     13  C   UNL     1     -44.010  51.009   0.909  0.00  0.00    +0.317 C 
ATOM     14  O   UNL     1     -44.251  49.814   0.981  0.00  0.00    -0.251 OA
ATOM     15  N   UNL     1     -44.409  51.780  -0.133  0.00  0.00    -0.312 N 
ATOM     16  H   UNL     1     -43.022  51.222   2.688  0.00  0.00    +0.000 HD
ATOM     17  H   UNL     1     -44.192  52.740  -0.147  0.00  0.00    +0.000 HD
ATOM     18  H   UNL     1     -44.916  51.379  -0.876  0.00  0.00    +0.000 HD
ENDBRANCH  11  12
ENDBRANCH   9  10
BRANCH   7  19
ATOM     19  C   UNL     1     -42.607  58.493   3.798  0.00  0.00    +0.048 C 
BRANCH  19  20
ATOM     20  C   UNL     1     -43.830  59.067   4.464  0.00  0.00    -0.028 A 
ATOM     21  C   UNL     1     -45.100  58.843   3.923  0.00  0.00    -0.053 A 
ATOM     22  C   UNL     1     -46.219  59.484   4.458  0.00  0.00    -0.020 A 
ATOM     23  C   UNL     1     -46.097  60.335   5.557  0.00  0.00    +0.120 A 
ATOM     24  C   UNL     1     -44.848  60.513   6.145  0.00  0.00    -0.020 A 
ATOM     25  C   UNL     1     -43.720  59.884   5.600  0.00  0.00    -0.053 A 
BRANCH  23  26
ATOM     26  O   UNL     1     -47.254  60.974   5.904  0.00  0.00    -0.495 OA
ATOM     27  C   UNL     1     -47.373  61.430   7.244  0.00  0.00    +0.079 C 
ENDBRANCH  23  26
ENDBRANCH  19  20
ENDBRANCH   7  19
TORSDOF 5
ENDMDL
