MODEL 1
REMARK VINA RESULT:    -6.625      0.000      0.000
REMARK INTER + INTRA:          -8.747
REMARK INTER:                  -8.174
REMARK INTRA:                  -0.573
REMARK UNBOUND:                -0.573
REMARK  Name = 19.sdf
REMARK  5 active torsions:
REMARK  status: ('A' for Active; 'I' for Inactive)
REMARK    1  A    between atoms: C_9  and  C_10
REMARK    2  A    between atoms: C_10  and  C_11
REMARK    3  A    between atoms: C_11  and  O_13
REMARK    4  A    between atoms: O_13  and  C_14
REMARK    5  A    between atoms: C_14  and  C_15
REMARK                            x       y       z     vdW  Elec       q    Type
REMARK                         _______ _______ _______ _____ _____    ______ ____
ROOT
ATOM      1  C   UNL     1     -46.751  60.975   5.868  0.00  0.00    -0.061 A 
ATOM      2  C   UNL     1     -47.458  61.380   6.995  0.00  0.00    -0.060 A 
ATOM      3  C   UNL     1     -46.838  61.454   8.246  0.00  0.00    -0.038 A 
ATOM      4  C   UNL     1     -45.482  61.118   8.314  0.00  0.00    +0.047 A 
ATOM      5  C   UNL     1     -44.736  60.726   7.202  0.00  0.00    +0.003 A 
ATOM      6  C   UNL     1     -45.393  60.647   5.955  0.00  0.00    -0.052 A 
ATOM      7  N   UNL     1     -44.634  61.099   9.396  0.00  0.00    -0.360 N 
ATOM      8  C   UNL     1     -43.372  60.744   9.001  0.00  0.00    +0.006 A 
ATOM      9  C   UNL     1     -43.389  60.501   7.639  0.00  0.00    -0.012 A 
ATOM     10  H   UNL     1     -44.896  61.310  10.321  0.00  0.00    +0.000 HD
ENDROOT
BRANCH   9  11
ATOM     11  C   UNL     1     -42.212  60.129   6.791  0.00  0.00    +0.072 C 
BRANCH  11  12
ATOM     12  C   UNL     1     -41.639  58.757   7.087  0.00  0.00    +0.312 C 
ATOM     13  O   UNL     1     -40.496  58.501   7.439  0.00  0.00    -0.250 OA
BRANCH  12  14
ATOM     14  O   UNL     1     -42.605  57.814   6.842  0.00  0.00    -0.465 OA
BRANCH  14  15
ATOM     15  C   UNL     1     -42.795  57.437   5.470  0.00  0.00    +0.090 C 
ATOM     16  C   UNL     1     -44.266  57.312   5.131  0.00  0.00    -0.031 C 
ENDBRANCH  14  15
ENDBRANCH  12  14
ENDBRANCH  11  12
ENDBRANCH   9  11
TORSDOF 4
ENDMDL
MODEL 2
REMARK VINA RESULT:    -6.148      1.848      3.107
REMARK INTER + INTRA:          -8.158
REMARK INTER:                  -7.738
REMARK INTRA:                  -0.420
REMARK UNBOUND:                -0.573
REMARK  Name = 19.sdf
REMARK  5 active torsions:
REMARK  status: ('A' for Active; 'I' for Inactive)
REMARK    1  A    between atoms: C_9  and  C_10
REMARK    2  A    between atoms: C_10  and  C_11
REMARK    3  A    between atoms: C_11  and  O_13
REMARK    4  A    between atoms: O_13  and  C_14
REMARK    5  A    between atoms: C_14  and  C_15
REMARK                            x       y       z     vdW  Elec       q    Type
REMARK                         _______ _______ _______ _____ _____    ______ ____
ROOT
ATOM      1  C   UNL     1     -46.009  61.734   8.651  0.00  0.00    -0.061 A 
ATOM      2  C   UNL     1     -47.115  61.555   7.825  0.00  0.00    -0.060 A 
ATOM      3  C   UNL     1     -46.981  60.988   6.554  0.00  0.00    -0.038 A 
ATOM      4  C   UNL     1     -45.699  60.598   6.155  0.00  0.00    +0.047 A 
ATOM      5  C   UNL     1     -44.570  60.744   6.963  0.00  0.00    +0.003 A 
ATOM      6  C   UNL     1     -44.734  61.333   8.235  0.00  0.00    -0.052 A 
ATOM      7  N   UNL     1     -45.280  60.025   4.977  0.00  0.00    -0.360 N 
ATOM      8  C   UNL     1     -43.935  59.771   5.026  0.00  0.00    +0.006 A 
ATOM      9  C   UNL     1     -43.450  60.205   6.248  0.00  0.00    -0.012 A 
ATOM     10  H   UNL     1     -45.863  59.825   4.210  0.00  0.00    +0.000 HD
ENDROOT
BRANCH   9  11
ATOM     11  C   UNL     1     -42.040  60.079   6.735  0.00  0.00    +0.072 C 
BRANCH  11  12
ATOM     12  C   UNL     1     -41.706  58.728   7.336  0.00  0.00    +0.312 C 
ATOM     13  O   UNL     1     -41.536  57.678   6.731  0.00  0.00    -0.250 OA
BRANCH  12  14
ATOM     14  O   UNL     1     -41.673  58.850   8.702  0.00  0.00    -0.465 OA
BRANCH  14  15
ATOM     15  C   UNL     1     -41.199  60.103   9.218  0.00  0.00    +0.090 C 
ATOM     16  C   UNL     1     -39.870  59.941   9.925  0.00  0.00    -0.031 C 
ENDBRANCH  14  15
ENDBRANCH  12  14
ENDBRANCH  11  12
ENDBRANCH   9  11
TORSDOF 4
ENDMDL
MODEL 3
REMARK VINA RESULT:    -6.142      2.579      4.444
REMARK INTER + INTRA:          -8.152
REMARK INTER:                  -7.722
REMARK INTRA:                  -0.430
REMARK UNBOUND:                -0.573
REMARK  Name = 19.sdf
REMARK  5 active torsions:
REMARK  status: ('A' for Active; 'I' for Inactive)
REMARK    1  A    between atoms: C_9  and  C_10
REMARK    2  A    between atoms: C_10  and  C_11
REMARK    3  A    between atoms: C_11  and  O_13
REMARK    4  A    between atoms: O_13  and  C_14
REMARK    5  A    between atoms: C_14  and  C_15
REMARK                            x       y       z     vdW  Elec       q    Type
REMARK                         _______ _______ _______ _____ _____    ______ ____
ROOT
ATOM      1  C   UNL     1     -46.412  58.997   3.657  0.00  0.00    -0.061 A 
ATOM      2  C   UNL     1     -45.767  57.783   3.439  0.00  0.00    -0.060 A 
ATOM      3  C   UNL     1     -44.658  57.410   4.204  0.00  0.00    -0.038 A 
ATOM      4  C   UNL     1     -44.235  58.296   5.200  0.00  0.00    +0.047 A 
ATOM      5  C   UNL     1     -44.868  59.512   5.459  0.00  0.00    +0.003 A 
ATOM      6  C   UNL     1     -45.977  59.868   4.661  0.00  0.00    -0.052 A 
ATOM      7  N   UNL     1     -43.188  58.190   6.085  0.00  0.00    -0.360 N 
ATOM      8  C   UNL     1     -43.160  59.277   6.918  0.00  0.00    +0.006 A 
ATOM      9  C   UNL     1     -44.191  60.129   6.562  0.00  0.00    -0.012 A 
ATOM     10  H   UNL     1     -42.552  57.439   6.117  0.00  0.00    +0.000 HD
ENDROOT
BRANCH   9  11
ATOM     11  C   UNL     1     -44.549  61.415   7.241  0.00  0.00    +0.072 C 
BRANCH  11  12
ATOM     12  C   UNL     1     -45.108  61.246   8.641  0.00  0.00    +0.312 C 
ATOM     13  O   UNL     1     -44.567  60.685   9.583  0.00  0.00    -0.250 OA
BRANCH  12  14
ATOM     14  O   UNL     1     -46.368  61.787   8.679  0.00  0.00    -0.465 OA
BRANCH  14  15
ATOM     15  C   UNL     1     -47.445  60.920   8.293  0.00  0.00    +0.090 C 
ATOM     16  C   UNL     1     -48.172  61.453   7.076  0.00  0.00    -0.031 C 
ENDBRANCH  14  15
ENDBRANCH  12  14
ENDBRANCH  11  12
ENDBRANCH   9  11
TORSDOF 4
ENDMDL
