MODEL 1
REMARK VINA RESULT:    -5.981      0.000      0.000
REMARK INTER + INTRA:          -6.368
REMARK INTER:                  -6.331
REMARK INTRA:                  -0.037
REMARK UNBOUND:                -0.037
REMARK  Name = 1.sdf
REMARK  1 active torsions:
REMARK  status: ('A' for Active; 'I' for Inactive)
REMARK    1  A    between atoms: C_9  and  C_10
REMARK                            x       y       z     vdW  Elec       q    Type
REMARK                         _______ _______ _______ _____ _____    ______ ____
ROOT
ATOM      1  C   UNL     1     -47.021  61.064   5.939  0.00  0.00    -0.061 A 
ATOM      2  C   UNL     1     -47.659  61.387   7.134  0.00  0.00    -0.060 A 
ATOM      3  C   UNL     1     -46.952  61.431   8.338  0.00  0.00    -0.038 A 
ATOM      4  C   UNL     1     -45.584  61.134   8.302  0.00  0.00    +0.047 A 
ATOM      5  C   UNL     1     -44.914  60.804   7.121  0.00  0.00    +0.010 A 
ATOM      6  C   UNL     1     -45.652  60.774   5.919  0.00  0.00    -0.052 A 
ATOM      7  N   UNL     1     -44.660  61.096   9.319  0.00  0.00    -0.360 N 
ATOM      8  C   UNL     1     -43.432  60.745   8.828  0.00  0.00    +0.013 A 
ATOM      9  C   UNL     1     -43.546  60.558   7.463  0.00  0.00    +0.039 A 
ATOM     10  H   UNL     1     -44.854  61.292  10.265  0.00  0.00    +0.000 HD
ENDROOT
BRANCH   9  11
ATOM     11  C   UNL     1     -42.461  60.178   6.580  0.00  0.00    +0.152 C 
ATOM     12  O   UNL     1     -42.202  60.750   5.524  0.00  0.00    -0.296 OA
ENDBRANCH   9  11
TORSDOF 1
ENDMDL
MODEL 2
REMARK VINA RESULT:    -5.963      1.707      2.430
REMARK INTER + INTRA:          -6.349
REMARK INTER:                  -6.323
REMARK INTRA:                  -0.026
REMARK UNBOUND:                -0.037
REMARK  Name = 1.sdf
REMARK  1 active torsions:
REMARK  status: ('A' for Active; 'I' for Inactive)
REMARK    1  A    between atoms: C_9  and  C_10
REMARK                            x       y       z     vdW  Elec       q    Type
REMARK                         _______ _______ _______ _____ _____    ______ ____
ROOT
ATOM      1  C   UNL     1     -47.283  61.379   8.214  0.00  0.00    -0.061 A 
ATOM      2  C   UNL     1     -47.655  61.370   6.873  0.00  0.00    -0.060 A 
ATOM      3  C   UNL     1     -46.741  61.023   5.874  0.00  0.00    -0.038 A 
ATOM      4  C   UNL     1     -45.439  60.690   6.271  0.00  0.00    +0.047 A 
ATOM      5  C   UNL     1     -45.033  60.691   7.608  0.00  0.00    +0.010 A 
ATOM      6  C   UNL     1     -45.979  61.040   8.595  0.00  0.00    -0.052 A 
ATOM      7  N   UNL     1     -44.352  60.321   5.516  0.00  0.00    -0.360 N 
ATOM      8  C   UNL     1     -43.270  60.097   6.322  0.00  0.00    +0.013 A 
ATOM      9  C   UNL     1     -43.653  60.313   7.633  0.00  0.00    +0.039 A 
ATOM     10  H   UNL     1     -44.351  60.230   4.534  0.00  0.00    +0.000 HD
ENDROOT
BRANCH   9  11
ATOM     11  C   UNL     1     -42.787  60.177   8.789  0.00  0.00    +0.152 C 
ATOM     12  O   UNL     1     -42.049  59.216   8.985  0.00  0.00    -0.296 OA
ENDBRANCH   9  11
TORSDOF 1
ENDMDL
MODEL 3
REMARK VINA RESULT:    -5.735      2.558      3.476
REMARK INTER + INTRA:          -6.107
REMARK INTER:                  -6.062
REMARK INTRA:                  -0.045
REMARK UNBOUND:                -0.037
REMARK  Name = 1.sdf
REMARK  1 active torsions:
REMARK  status: ('A' for Active; 'I' for Inactive)
REMARK    1  A    between atoms: C_9  and  C_10
REMARK                            x       y       z     vdW  Elec       q    Type
REMARK                         _______ _______ _______ _____ _____    ______ ____
ROOT
ATOM      1  C   UNL     1     -46.427  59.514   4.015  0.00  0.00    -0.061 A 
ATOM      2  C   UNL     1     -45.470  58.510   3.903  0.00  0.00    -0.060 A 
ATOM      3  C   UNL     1     -44.476  58.350   4.871  0.00  0.00    -0.038 A 
ATOM      4  C   UNL     1     -44.473  59.239   5.953  0.00  0.00    +0.047 A 
ATOM      5  C   UNL     1     -45.417  60.260   6.096  0.00  0.00    +0.010 A 
ATOM      6  C   UNL     1     -46.413  60.393   5.105  0.00  0.00    -0.052 A 
ATOM      7  N   UNL     1     -43.623  59.318   7.031  0.00  0.00    -0.360 N 
ATOM      8  C   UNL     1     -43.988  60.355   7.845  0.00  0.00    +0.013 A 
ATOM      9  C   UNL     1     -45.102  60.965   7.301  0.00  0.00    +0.039 A 
ATOM     10  H   UNL     1     -42.862  58.714   7.194  0.00  0.00    +0.000 HD
ENDROOT
BRANCH   9  11
ATOM     11  C   UNL     1     -45.791  62.107   7.870  0.00  0.00    +0.152 C 
ATOM     12  O   UNL     1     -46.771  62.022   8.604  0.00  0.00    -0.296 OA
ENDBRANCH   9  11
TORSDOF 1
ENDMDL
