MODEL 1
REMARK VINA RESULT:    -7.996      0.000      0.000
REMARK INTER + INTRA:          -9.225
REMARK INTER:                  -8.931
REMARK INTRA:                  -0.294
REMARK UNBOUND:                -0.294
REMARK  Name = 1d.sdf
REMARK  2 active torsions:
REMARK  status: ('A' for Active; 'I' for Inactive)
REMARK    1  A    between atoms: C_9  and  C_10
REMARK    2  A    between atoms: C_12  and  C_13
REMARK                            x       y       z     vdW  Elec       q    Type
REMARK                         _______ _______ _______ _____ _____    ______ ____
ROOT
ATOM      1  C   UNL     1     -46.510  61.755   7.943  0.00  0.00    -0.061 A 
ATOM      2  C   UNL     1     -47.394  61.381   6.939  0.00  0.00    -0.060 A 
ATOM      3  C   UNL     1     -46.955  60.647   5.833  0.00  0.00    -0.037 A 
ATOM      4  C   UNL     1     -45.595  60.292   5.755  0.00  0.00    +0.057 A 
ATOM      5  C   UNL     1     -44.690  60.656   6.761  0.00  0.00    +0.011 A 
ATOM      6  C   UNL     1     -45.160  61.401   7.866  0.00  0.00    -0.052 A 
ATOM      7  N   UNL     1     -44.904  59.525   4.814  0.00  0.00    -0.282 N 
ATOM      8  C   UNL     1     -43.577  59.481   5.203  0.00  0.00    +0.024 A 
ATOM      9  C   UNL     1     -43.413  60.141   6.401  0.00  0.00    +0.040 A 
ATOM     10  C   UNL     1     -45.439  58.878   3.671  0.00  0.00    +0.263 C 
ATOM     11  O   UNL     1     -46.494  59.296   3.202  0.00  0.00    -0.267 OA
ENDROOT
BRANCH  10  12
ATOM     12  C   UNL     1     -44.778  57.715   3.022  0.00  0.00    +0.040 A 
ATOM     13  C   UNL     1     -44.215  57.852   1.746  0.00  0.00    -0.049 A 
ATOM     14  C   UNL     1     -43.649  56.748   1.112  0.00  0.00    -0.061 A 
ATOM     15  C   UNL     1     -43.613  55.516   1.763  0.00  0.00    -0.062 A 
ATOM     16  C   UNL     1     -44.119  55.392   3.059  0.00  0.00    -0.061 A 
ATOM     17  C   UNL     1     -44.698  56.492   3.695  0.00  0.00    -0.049 A 
ENDBRANCH  10  12
BRANCH   9  18
ATOM     18  C   UNL     1     -42.155  60.258   7.116  0.00  0.00    +0.152 C 
ATOM     19  O   UNL     1     -41.859  59.564   8.086  0.00  0.00    -0.296 OA
ENDBRANCH   9  18
TORSDOF 2
ENDMDL
MODEL 2
REMARK VINA RESULT:    -7.715      2.673      7.204
REMARK INTER + INTRA:          -8.912
REMARK INTER:                  -8.599
REMARK INTRA:                  -0.312
REMARK UNBOUND:                -0.294
REMARK  Name = 1d.sdf
REMARK  2 active torsions:
REMARK  status: ('A' for Active; 'I' for Inactive)
REMARK    1  A    between atoms: C_9  and  C_10
REMARK    2  A    between atoms: C_12  and  C_13
REMARK                            x       y       z     vdW  Elec       q    Type
REMARK                         _______ _______ _______ _____ _____    ______ ____
ROOT
ATOM      1  C   UNL     1     -44.265  53.644  -0.840  0.00  0.00    -0.061 A 
ATOM      2  C   UNL     1     -43.994  53.255   0.466  0.00  0.00    -0.060 A 
ATOM      3  C   UNL     1     -43.703  54.203   1.451  0.00  0.00    -0.037 A 
ATOM      4  C   UNL     1     -43.689  55.564   1.094  0.00  0.00    +0.057 A 
ATOM      5  C   UNL     1     -43.965  55.975  -0.217  0.00  0.00    +0.011 A 
ATOM      6  C   UNL     1     -44.253  54.995  -1.194  0.00  0.00    -0.052 A 
ATOM      7  N   UNL     1     -43.493  56.710   1.870  0.00  0.00    -0.282 N 
ATOM      8  C   UNL     1     -43.577  57.805   1.029  0.00  0.00    +0.024 A 
ATOM      9  C   UNL     1     -43.889  57.396  -0.249  0.00  0.00    +0.040 A 
ATOM     10  C   UNL     1     -43.269  56.774   3.269  0.00  0.00    +0.263 C 
ATOM     11  O   UNL     1     -42.818  55.782   3.835  0.00  0.00    -0.267 OA
ENDROOT
BRANCH  10  12
ATOM     12  C   UNL     1     -43.560  57.988   4.075  0.00  0.00    +0.040 A 
ATOM     13  C   UNL     1     -42.513  58.826   4.481  0.00  0.00    -0.049 A 
ATOM     14  C   UNL     1     -42.778  59.931   5.288  0.00  0.00    -0.061 A 
ATOM     15  C   UNL     1     -44.090  60.220   5.660  0.00  0.00    -0.062 A 
ATOM     16  C   UNL     1     -45.141  59.421   5.207  0.00  0.00    -0.061 A 
ATOM     17  C   UNL     1     -44.881  58.306   4.408  0.00  0.00    -0.049 A 
ENDBRANCH  10  12
BRANCH   9  18
ATOM     18  C   UNL     1     -44.089  58.287  -1.378  0.00  0.00    +0.152 C 
ATOM     19  O   UNL     1     -43.882  59.498  -1.331  0.00  0.00    -0.296 OA
ENDBRANCH   9  18
TORSDOF 2
ENDMDL
MODEL 3
REMARK VINA RESULT:    -7.612      1.797      3.204
REMARK INTER + INTRA:          -8.796
REMARK INTER:                  -8.460
REMARK INTRA:                  -0.337
REMARK UNBOUND:                -0.294
REMARK  Name = 1d.sdf
REMARK  2 active torsions:
REMARK  status: ('A' for Active; 'I' for Inactive)
REMARK    1  A    between atoms: C_9  and  C_10
REMARK    2  A    between atoms: C_12  and  C_13
REMARK                            x       y       z     vdW  Elec       q    Type
REMARK                         _______ _______ _______ _____ _____    ______ ____
ROOT
ATOM      1  C   UNL     1     -42.912  60.798   8.889  0.00  0.00    -0.061 A 
ATOM      2  C   UNL     1     -42.103  59.700   8.627  0.00  0.00    -0.060 A 
ATOM      3  C   UNL     1     -42.412  58.811   7.592  0.00  0.00    -0.037 A 
ATOM      4  C   UNL     1     -43.563  59.052   6.818  0.00  0.00    +0.057 A 
ATOM      5  C   UNL     1     -44.387  60.158   7.064  0.00  0.00    +0.011 A 
ATOM      6  C   UNL     1     -44.053  61.037   8.118  0.00  0.00    -0.052 A 
ATOM      7  N   UNL     1     -44.071  58.378   5.704  0.00  0.00    -0.282 N 
ATOM      8  C   UNL     1     -45.233  59.023   5.319  0.00  0.00    +0.024 A 
ATOM      9  C   UNL     1     -45.444  60.129   6.111  0.00  0.00    +0.040 A 
ATOM     10  C   UNL     1     -43.512  57.250   5.052  0.00  0.00    +0.263 C 
ATOM     11  O   UNL     1     -42.743  56.530   5.683  0.00  0.00    -0.267 OA
ENDROOT
BRANCH  10  12
ATOM     12  C   UNL     1     -43.814  56.907   3.637  0.00  0.00    +0.040 A 
ATOM     13  C   UNL     1     -43.215  57.632   2.598  0.00  0.00    -0.049 A 
ATOM     14  C   UNL     1     -43.544  57.351   1.273  0.00  0.00    -0.061 A 
ATOM     15  C   UNL     1     -44.441  56.326   0.983  0.00  0.00    -0.062 A 
ATOM     16  C   UNL     1     -44.993  55.562   2.013  0.00  0.00    -0.061 A 
ATOM     17  C   UNL     1     -44.677  55.846   3.344  0.00  0.00    -0.049 A 
ENDBRANCH  10  12
BRANCH   9  18
ATOM     18  C   UNL     1     -46.551  61.056   5.961  0.00  0.00    +0.152 C 
ATOM     19  O   UNL     1     -47.384  61.267   6.840  0.00  0.00    -0.296 OA
ENDBRANCH   9  18
TORSDOF 2
ENDMDL
