MODEL 1
REMARK VINA RESULT:    -9.266      0.000      0.000
REMARK INTER + INTRA:         -13.469
REMARK INTER:                 -12.516
REMARK INTRA:                  -0.952
REMARK UNBOUND:                -0.952
REMARK  Name = 26a.sdf
REMARK  7 active torsions:
REMARK  status: ('A' for Active; 'I' for Inactive)
REMARK    1  A    between atoms: N_7  and  C_10
REMARK    2  A    between atoms: C_9  and  C_18
REMARK    3  A    between atoms: C_10  and  C_11
REMARK    4  A    between atoms: N_19  and  N_20
REMARK    5  A    between atoms: C_21  and  C_23
REMARK    6  A    between atoms: C_26  and  O_29
REMARK    7  A    between atoms: C_28  and  O_30
REMARK                            x       y       z     vdW  Elec       q    Type
REMARK                         _______ _______ _______ _____ _____    ______ ____
ROOT
ATOM      1  C   UNL     1     -46.550  61.377   5.859  0.00  0.00    -0.061 A 
ATOM      2  C   UNL     1     -46.334  62.086   7.034  0.00  0.00    -0.060 A 
ATOM      3  C   UNL     1     -45.321  61.713   7.924  0.00  0.00    -0.038 A 
ATOM      4  C   UNL     1     -44.518  60.607   7.597  0.00  0.00    +0.050 A 
ATOM      5  C   UNL     1     -44.687  59.908   6.395  0.00  0.00    +0.009 A 
ATOM      6  C   UNL     1     -45.730  60.295   5.524  0.00  0.00    -0.052 A 
ATOM      7  N   UNL     1     -43.496  59.981   8.287  0.00  0.00    -0.342 N 
ATOM      8  C   UNL     1     -42.969  58.974   7.520  0.00  0.00    +0.015 A 
ATOM      9  C   UNL     1     -43.677  58.897   6.338  0.00  0.00    +0.020 A 
ENDROOT
BRANCH   9  10
ATOM     10  C   UNL     1     -43.424  57.959   5.265  0.00  0.00    +0.055 C 
ATOM     11  N   UNL     1     -44.324  57.083   4.955  0.00  0.00    -0.187 NA
BRANCH  11  12
ATOM     12  N   UNL     1     -43.982  56.240   3.941  0.00  0.00    -0.203 N 
ATOM     13  C   UNL     1     -44.803  56.080   2.841  0.00  0.00    +0.267 C 
ATOM     14  O   UNL     1     -45.873  56.666   2.667  0.00  0.00    -0.268 OA
ATOM     15  H   UNL     1     -43.138  55.737   3.992  0.00  0.00    +0.000 HD
BRANCH  13  16
ATOM     16  C   UNL     1     -44.326  55.104   1.804  0.00  0.00    +0.080 A 
ATOM     17  C   UNL     1     -44.703  55.342   0.471  0.00  0.00    -0.043 A 
ATOM     18  C   UNL     1     -44.316  54.476  -0.555  0.00  0.00    -0.019 A 
ATOM     19  C   UNL     1     -43.542  53.363  -0.247  0.00  0.00    +0.120 A 
ATOM     20  C   UNL     1     -43.146  53.108   1.060  0.00  0.00    +0.022 A 
ATOM     21  C   UNL     1     -43.538  53.975   2.085  0.00  0.00    +0.132 A 
BRANCH  19  22
ATOM     22  O   UNL     1     -43.147  52.482  -1.208  0.00  0.00    -0.507 OA
ATOM     23  H   UNL     1     -43.180  52.728  -2.112  0.00  0.00    +0.000 HD
ENDBRANCH  19  22
BRANCH  21  24
ATOM     24  O   UNL     1     -43.138  53.691   3.367  0.00  0.00    -0.506 OA
ATOM     25  H   UNL     1     -43.418  52.898   3.781  0.00  0.00    +0.000 HD
ENDBRANCH  21  24
ENDBRANCH  13  16
ENDBRANCH  11  12
ENDBRANCH   9  10
BRANCH   7  26
ATOM     26  C   UNL     1     -43.091  60.242   9.666  0.00  0.00    +0.048 C 
BRANCH  26  27
ATOM     27  C   UNL     1     -41.754  60.936   9.733  0.00  0.00    -0.028 A 
ATOM     28  C   UNL     1     -40.567  60.191   9.784  0.00  0.00    -0.056 A 
ATOM     29  C   UNL     1     -39.337  60.825   9.963  0.00  0.00    -0.047 A 
ATOM     30  C   UNL     1     -39.286  62.211  10.080  0.00  0.00    +0.018 A 
ATOM     31  C   UNL     1     -40.447  62.972   9.976  0.00  0.00    -0.047 A 
ATOM     32  C   UNL     1     -41.678  62.336   9.802  0.00  0.00    -0.056 A 
ATOM     33 BR   UNL     1     -37.631  63.061  10.416  0.00  0.00    -0.050 Br
ENDBRANCH  26  27
ENDBRANCH   7  26
TORSDOF 7
ENDMDL
MODEL 2
REMARK VINA RESULT:    -9.133      4.332     10.566
REMARK INTER + INTRA:         -13.288
REMARK INTER:                 -12.109
REMARK INTRA:                  -1.179
REMARK UNBOUND:                -0.952
REMARK  Name = 26a.sdf
REMARK  7 active torsions:
REMARK  status: ('A' for Active; 'I' for Inactive)
REMARK    1  A    between atoms: N_7  and  C_10
REMARK    2  A    between atoms: C_9  and  C_18
REMARK    3  A    between atoms: C_10  and  C_11
REMARK    4  A    between atoms: N_19  and  N_20
REMARK    5  A    between atoms: C_21  and  C_23
REMARK    6  A    between atoms: C_26  and  O_29
REMARK    7  A    between atoms: C_28  and  O_30
REMARK                            x       y       z     vdW  Elec       q    Type
REMARK                         _______ _______ _______ _____ _____    ______ ____
ROOT
ATOM      1  C   UNL     1     -45.007  55.463  -1.137  0.00  0.00    -0.061 A 
ATOM      2  C   UNL     1     -44.854  54.226  -1.753  0.00  0.00    -0.060 A 
ATOM      3  C   UNL     1     -44.168  53.186  -1.119  0.00  0.00    -0.038 A 
ATOM      4  C   UNL     1     -43.643  53.417   0.164  0.00  0.00    +0.050 A 
ATOM      5  C   UNL     1     -43.827  54.639   0.824  0.00  0.00    +0.009 A 
ATOM      6  C   UNL     1     -44.508  55.678   0.151  0.00  0.00    -0.052 A 
ATOM      7  N   UNL     1     -42.889  52.617   1.003  0.00  0.00    -0.342 N 
ATOM      8  C   UNL     1     -42.671  53.266   2.191  0.00  0.00    +0.015 A 
ATOM      9  C   UNL     1     -43.238  54.522   2.122  0.00  0.00    +0.020 A 
ENDROOT
BRANCH   9  10
ATOM     10  C   UNL     1     -43.223  55.512   3.178  0.00  0.00    +0.055 C 
ATOM     11  N   UNL     1     -44.334  55.875   3.731  0.00  0.00    -0.187 NA
BRANCH  11  12
ATOM     12  N   UNL     1     -44.211  56.820   4.704  0.00  0.00    -0.203 N 
ATOM     13  C   UNL     1     -44.893  58.019   4.624  0.00  0.00    +0.267 C 
ATOM     14  O   UNL     1     -45.658  58.336   3.712  0.00  0.00    -0.268 OA
ATOM     15  H   UNL     1     -43.626  56.646   5.477  0.00  0.00    +0.000 HD
BRANCH  13  16
ATOM     16  C   UNL     1     -44.653  58.986   5.748  0.00  0.00    +0.080 A 
ATOM     17  C   UNL     1     -43.587  58.709   6.622  0.00  0.00    -0.043 A 
ATOM     18  C   UNL     1     -43.303  59.547   7.702  0.00  0.00    -0.019 A 
ATOM     19  C   UNL     1     -44.089  60.674   7.912  0.00  0.00    +0.120 A 
ATOM     20  C   UNL     1     -45.144  60.978   7.060  0.00  0.00    +0.022 A 
ATOM     21  C   UNL     1     -45.427  60.135   5.981  0.00  0.00    +0.132 A 
BRANCH  19  22
ATOM     22  O   UNL     1     -43.861  61.517   8.958  0.00  0.00    -0.507 OA
ATOM     23  H   UNL     1     -44.578  61.819   9.482  0.00  0.00    +0.000 HD
ENDBRANCH  19  22
BRANCH  21  24
ATOM     24  O   UNL     1     -46.481  60.458   5.161  0.00  0.00    -0.506 OA
ATOM     25  H   UNL     1     -46.355  60.509   4.234  0.00  0.00    +0.000 HD
ENDBRANCH  21  24
ENDBRANCH  13  16
ENDBRANCH  11  12
ENDBRANCH   9  10
BRANCH   7  26
ATOM     26  C   UNL     1     -42.294  51.325   0.668  0.00  0.00    +0.048 C 
BRANCH  26  27
ATOM     27  C   UNL     1     -41.112  51.476  -0.256  0.00  0.00    -0.028 A 
ATOM     28  C   UNL     1     -41.137  50.916  -1.541  0.00  0.00    -0.056 A 
ATOM     29  C   UNL     1     -40.004  50.954  -2.355  0.00  0.00    -0.047 A 
ATOM     30  C   UNL     1     -38.842  51.565  -1.892  0.00  0.00    +0.018 A 
ATOM     31  C   UNL     1     -38.815  52.175  -0.640  0.00  0.00    -0.047 A 
ATOM     32  C   UNL     1     -39.948  52.131   0.175  0.00  0.00    -0.056 A 
ATOM     33 BR   UNL     1     -37.281  51.533  -2.957  0.00  0.00    -0.050 Br
ENDBRANCH  26  27
ENDBRANCH   7  26
TORSDOF 7
ENDMDL
MODEL 3
REMARK VINA RESULT:    -8.594      1.800      2.166
REMARK INTER + INTRA:         -12.561
REMARK INTER:                 -12.511
REMARK INTRA:                  -0.050
REMARK UNBOUND:                -0.952
REMARK  Name = 26a.sdf
REMARK  7 active torsions:
REMARK  status: ('A' for Active; 'I' for Inactive)
REMARK    1  A    between atoms: N_7  and  C_10
REMARK    2  A    between atoms: C_9  and  C_18
REMARK    3  A    between atoms: C_10  and  C_11
REMARK    4  A    between atoms: N_19  and  N_20
REMARK    5  A    between atoms: C_21  and  C_23
REMARK    6  A    between atoms: C_26  and  O_29
REMARK    7  A    between atoms: C_28  and  O_30
REMARK                            x       y       z     vdW  Elec       q    Type
REMARK                         _______ _______ _______ _____ _____    ______ ____
ROOT
ATOM      1  C   UNL     1     -46.214  60.675   5.231  0.00  0.00    -0.061 A 
ATOM      2  C   UNL     1     -45.757  61.400   6.324  0.00  0.00    -0.060 A 
ATOM      3  C   UNL     1     -44.685  60.941   7.095  0.00  0.00    -0.038 A 
ATOM      4  C   UNL     1     -44.072  59.729   6.733  0.00  0.00    +0.050 A 
ATOM      5  C   UNL     1     -44.485  59.006   5.606  0.00  0.00    +0.009 A 
ATOM      6  C   UNL     1     -45.583  59.484   4.857  0.00  0.00    -0.052 A 
ATOM      7  N   UNL     1     -43.047  59.009   7.320  0.00  0.00    -0.342 N 
ATOM      8  C   UNL     1     -42.754  57.912   6.552  0.00  0.00    +0.015 A 
ATOM      9  C   UNL     1     -43.621  57.874   5.480  0.00  0.00    +0.020 A 
ENDROOT
BRANCH   9  10
ATOM     10  C   UNL     1     -43.631  56.866   4.440  0.00  0.00    +0.055 C 
ATOM     11  N   UNL     1     -43.100  57.128   3.290  0.00  0.00    -0.187 NA
BRANCH  11  12
ATOM     12  N   UNL     1     -43.172  56.118   2.379  0.00  0.00    -0.203 N 
ATOM     13  C   UNL     1     -44.296  55.946   1.594  0.00  0.00    +0.267 C 
ATOM     14  O   UNL     1     -45.296  56.664   1.626  0.00  0.00    -0.268 OA
ATOM     15  H   UNL     1     -42.413  55.499   2.280  0.00  0.00    +0.000 HD
BRANCH  13  16
ATOM     16  C   UNL     1     -44.261  54.781   0.647  0.00  0.00    +0.080 A 
ATOM     17  C   UNL     1     -44.676  55.011  -0.677  0.00  0.00    -0.043 A 
ATOM     18  C   UNL     1     -44.689  53.980  -1.619  0.00  0.00    -0.019 A 
ATOM     19  C   UNL     1     -44.283  52.707  -1.237  0.00  0.00    +0.120 A 
ATOM     20  C   UNL     1     -43.859  52.451   0.061  0.00  0.00    +0.022 A 
ATOM     21  C   UNL     1     -43.850  53.485   1.003  0.00  0.00    +0.132 A 
BRANCH  19  22
ATOM     22  O   UNL     1     -44.289  51.664  -2.115  0.00  0.00    -0.507 OA
ATOM     23  H   UNL     1     -43.897  51.761  -2.961  0.00  0.00    +0.000 HD
ENDBRANCH  19  22
BRANCH  21  24
ATOM     24  O   UNL     1     -43.433  53.199   2.280  0.00  0.00    -0.506 OA
ATOM     25  H   UNL     1     -43.149  53.890   2.846  0.00  0.00    +0.000 HD
ENDBRANCH  21  24
ENDBRANCH  13  16
ENDBRANCH  11  12
ENDBRANCH   9  10
BRANCH   7  26
ATOM     26  C   UNL     1     -42.429  59.276   8.617  0.00  0.00    +0.048 C 
BRANCH  26  27
ATOM     27  C   UNL     1     -40.929  59.135   8.560  0.00  0.00    -0.028 A 
ATOM     28  C   UNL     1     -40.311  58.554   7.444  0.00  0.00    -0.056 A 
ATOM     29  C   UNL     1     -38.936  58.316   7.437  0.00  0.00    -0.047 A 
ATOM     30  C   UNL     1     -38.168  58.671   8.543  0.00  0.00    +0.018 A 
ATOM     31  C   UNL     1     -38.756  59.299   9.638  0.00  0.00    -0.047 A 
ATOM     32  C   UNL     1     -40.133  59.532   9.645  0.00  0.00    -0.056 A 
ATOM     33 BR   UNL     1     -36.323  58.263   8.571  0.00  0.00    -0.050 Br
ENDBRANCH  26  27
ENDBRANCH   7  26
TORSDOF 7
ENDMDL
