MODEL 1
REMARK VINA RESULT:    -9.206      0.000      0.000
REMARK INTER + INTRA:         -13.092
REMARK INTER:                 -12.166
REMARK INTRA:                  -0.926
REMARK UNBOUND:                -0.926
REMARK  Name = 27a.sdf
REMARK  6 active torsions:
REMARK  status: ('A' for Active; 'I' for Inactive)
REMARK    1  A    between atoms: N_7  and  C_10
REMARK    2  A    between atoms: C_9  and  C_18
REMARK    3  A    between atoms: C_10  and  C_11
REMARK    4  A    between atoms: N_19  and  N_20
REMARK    5  A    between atoms: C_21  and  C_23
REMARK    6  A    between atoms: C_26  and  N_29
REMARK                            x       y       z     vdW  Elec       q    Type
REMARK                         _______ _______ _______ _____ _____    ______ ____
ROOT
ATOM      1  C   UNL     1     -44.933  55.079  -1.395  0.00  0.00    -0.061 A 
ATOM      2  C   UNL     1     -44.684  53.807  -1.893  0.00  0.00    -0.060 A 
ATOM      3  C   UNL     1     -44.003  52.855  -1.126  0.00  0.00    -0.038 A 
ATOM      4  C   UNL     1     -43.585  53.212   0.167  0.00  0.00    +0.050 A 
ATOM      5  C   UNL     1     -43.866  54.474   0.707  0.00  0.00    +0.009 A 
ATOM      6  C   UNL     1     -44.539  55.421  -0.098  0.00  0.00    -0.052 A 
ATOM      7  N   UNL     1     -42.867  52.517   1.123  0.00  0.00    -0.342 N 
ATOM      8  C   UNL     1     -42.761  53.274   2.263  0.00  0.00    +0.015 A 
ATOM      9  C   UNL     1     -43.376  54.491   2.051  0.00  0.00    +0.020 A 
ENDROOT
BRANCH   9  10
ATOM     10  C   UNL     1     -43.494  55.569   3.012  0.00  0.00    +0.055 C 
ATOM     11  N   UNL     1     -44.663  55.992   3.367  0.00  0.00    -0.187 NA
BRANCH  11  12
ATOM     12  N   UNL     1     -44.681  57.019   4.268  0.00  0.00    -0.203 N 
ATOM     13  C   UNL     1     -45.425  58.159   3.986  0.00  0.00    +0.263 C 
ATOM     14  O   UNL     1     -46.102  58.335   2.976  0.00  0.00    -0.268 OA
ATOM     15  H   UNL     1     -44.172  56.953   5.108  0.00  0.00    +0.000 HD
BRANCH  13  16
ATOM     16  C   UNL     1     -45.401  59.219   5.037  0.00  0.00    +0.038 A 
ATOM     17  C   UNL     1     -46.226  60.350   4.993  0.00  0.00    -0.048 A 
ATOM     18  C   UNL     1     -46.154  61.310   6.012  0.00  0.00    -0.040 A 
ATOM     19  C   UNL     1     -45.243  61.176   7.064  0.00  0.00    +0.025 A 
ATOM     20  C   UNL     1     -44.488  60.006   7.147  0.00  0.00    -0.040 A 
ATOM     21  C   UNL     1     -44.550  59.042   6.135  0.00  0.00    -0.048 A 
BRANCH  19  22
ATOM     22  N   UNL     1     -45.265  62.076   8.134  0.00  0.00    -0.358 N 
ATOM     23  H   UNL     1     -45.026  61.772   9.039  0.00  0.00    +0.000 HD
ATOM     24  H   UNL     1     -45.519  63.016   7.982  0.00  0.00    +0.000 HD
ENDBRANCH  19  22
ENDBRANCH  13  16
ENDBRANCH  11  12
ENDBRANCH   9  10
BRANCH   7  25
ATOM     25  C   UNL     1     -42.206  51.225   0.941  0.00  0.00    +0.048 C 
BRANCH  25  26
ATOM     26  C   UNL     1     -41.071  51.311  -0.048  0.00  0.00    -0.028 A 
ATOM     27  C   UNL     1     -39.911  52.037   0.258  0.00  0.00    -0.056 A 
ATOM     28  C   UNL     1     -38.911  52.215  -0.700  0.00  0.00    -0.047 A 
ATOM     29  C   UNL     1     -39.060  51.654  -1.966  0.00  0.00    +0.018 A 
ATOM     30  C   UNL     1     -40.177  50.880  -2.269  0.00  0.00    -0.047 A 
ATOM     31  C   UNL     1     -41.180  50.708  -1.311  0.00  0.00    -0.056 A 
ATOM     32 BR   UNL     1     -37.752  51.977  -3.293  0.00  0.00    -0.050 Br
ENDBRANCH  25  26
ENDBRANCH   7  25
TORSDOF 6
ENDMDL
MODEL 2
REMARK VINA RESULT:    -8.871      2.065      2.509
REMARK INTER + INTRA:         -12.649
REMARK INTER:                 -11.838
REMARK INTRA:                  -0.811
REMARK UNBOUND:                -0.926
REMARK  Name = 27a.sdf
REMARK  6 active torsions:
REMARK  status: ('A' for Active; 'I' for Inactive)
REMARK    1  A    between atoms: N_7  and  C_10
REMARK    2  A    between atoms: C_9  and  C_18
REMARK    3  A    between atoms: C_10  and  C_11
REMARK    4  A    between atoms: N_19  and  N_20
REMARK    5  A    between atoms: C_21  and  C_23
REMARK    6  A    between atoms: C_26  and  N_29
REMARK                            x       y       z     vdW  Elec       q    Type
REMARK                         _______ _______ _______ _____ _____    ______ ____
ROOT
ATOM      1  C   UNL     1     -44.334  56.700  -0.833  0.00  0.00    -0.061 A 
ATOM      2  C   UNL     1     -44.503  55.418  -1.339  0.00  0.00    -0.060 A 
ATOM      3  C   UNL     1     -44.220  54.293  -0.557  0.00  0.00    -0.038 A 
ATOM      4  C   UNL     1     -43.768  54.488   0.758  0.00  0.00    +0.050 A 
ATOM      5  C   UNL     1     -43.634  55.772   1.305  0.00  0.00    +0.009 A 
ATOM      6  C   UNL     1     -43.909  56.889   0.485  0.00  0.00    -0.052 A 
ATOM      7  N   UNL     1     -43.372  53.593   1.734  0.00  0.00    -0.342 N 
ATOM      8  C   UNL     1     -43.071  54.270   2.889  0.00  0.00    +0.015 A 
ATOM      9  C   UNL     1     -43.230  55.623   2.669  0.00  0.00    +0.020 A 
ENDROOT
BRANCH   9  10
ATOM     10  C   UNL     1     -43.024  56.678   3.641  0.00  0.00    +0.055 C 
ATOM     11  N   UNL     1     -42.101  56.558   4.538  0.00  0.00    -0.187 NA
BRANCH  11  12
ATOM     12  N   UNL     1     -41.985  57.595   5.421  0.00  0.00    -0.203 N 
ATOM     13  C   UNL     1     -42.906  57.714   6.455  0.00  0.00    +0.263 C 
ATOM     14  O   UNL     1     -43.841  56.945   6.668  0.00  0.00    -0.268 OA
ATOM     15  H   UNL     1     -41.256  58.250   5.326  0.00  0.00    +0.000 HD
BRANCH  13  16
ATOM     16  C   UNL     1     -42.688  58.864   7.382  0.00  0.00    +0.038 A 
ATOM     17  C   UNL     1     -43.645  59.865   7.588  0.00  0.00    -0.048 A 
ATOM     18  C   UNL     1     -43.379  60.919   8.471  0.00  0.00    -0.040 A 
ATOM     19  C   UNL     1     -42.150  61.010   9.133  0.00  0.00    +0.025 A 
ATOM     20  C   UNL     1     -41.237  59.965   8.990  0.00  0.00    -0.040 A 
ATOM     21  C   UNL     1     -41.492  58.908   8.109  0.00  0.00    -0.048 A 
BRANCH  19  22
ATOM     22  N   UNL     1     -41.943  61.998  10.102  0.00  0.00    -0.358 N 
ATOM     23  H   UNL     1     -42.099  62.944   9.881  0.00  0.00    +0.000 HD
ATOM     24  H   UNL     1     -41.642  61.746  11.005  0.00  0.00    +0.000 HD
ENDBRANCH  19  22
ENDBRANCH  13  16
ENDBRANCH  11  12
ENDBRANCH   9  10
BRANCH   7  25
ATOM     25  C   UNL     1     -43.176  52.154   1.562  0.00  0.00    +0.048 C 
BRANCH  25  26
ATOM     26  C   UNL     1     -41.990  51.851   0.681  0.00  0.00    -0.028 A 
ATOM     27  C   UNL     1     -40.702  52.264   1.052  0.00  0.00    -0.056 A 
ATOM     28  C   UNL     1     -39.622  52.089   0.184  0.00  0.00    -0.047 A 
ATOM     29  C   UNL     1     -39.823  51.485  -1.054  0.00  0.00    +0.018 A 
ATOM     30  C   UNL     1     -41.084  51.014  -1.415  0.00  0.00    -0.047 A 
ATOM     31  C   UNL     1     -42.164  51.196  -0.548  0.00  0.00    -0.056 A 
ATOM     32 BR   UNL     1     -38.381  51.335  -2.268  0.00  0.00    -0.050 Br
ENDBRANCH  25  26
ENDBRANCH   7  25
TORSDOF 6
ENDMDL
MODEL 3
REMARK VINA RESULT:    -8.628      4.248     10.617
REMARK INTER + INTRA:         -12.328
REMARK INTER:                 -11.737
REMARK INTRA:                  -0.591
REMARK UNBOUND:                -0.926
REMARK  Name = 27a.sdf
REMARK  6 active torsions:
REMARK  status: ('A' for Active; 'I' for Inactive)
REMARK    1  A    between atoms: N_7  and  C_10
REMARK    2  A    between atoms: C_9  and  C_18
REMARK    3  A    between atoms: C_10  and  C_11
REMARK    4  A    between atoms: N_19  and  N_20
REMARK    5  A    between atoms: C_21  and  C_23
REMARK    6  A    between atoms: C_26  and  N_29
REMARK                            x       y       z     vdW  Elec       q    Type
REMARK                         _______ _______ _______ _____ _____    ______ ____
ROOT
ATOM      1  C   UNL     1     -46.237  60.844   5.271  0.00  0.00    -0.061 A 
ATOM      2  C   UNL     1     -46.171  61.674   6.383  0.00  0.00    -0.060 A 
ATOM      3  C   UNL     1     -45.244  61.435   7.403  0.00  0.00    -0.038 A 
ATOM      4  C   UNL     1     -44.372  60.342   7.275  0.00  0.00    +0.050 A 
ATOM      5  C   UNL     1     -44.389  59.519   6.140  0.00  0.00    +0.009 A 
ATOM      6  C   UNL     1     -45.349  59.773   5.134  0.00  0.00    -0.052 A 
ATOM      7  N   UNL     1     -43.402  59.838   8.121  0.00  0.00    -0.342 N 
ATOM      8  C   UNL     1     -42.766  58.781   7.519  0.00  0.00    +0.015 A 
ATOM      9  C   UNL     1     -43.341  58.557   6.285  0.00  0.00    +0.020 A 
ENDROOT
BRANCH   9  10
ATOM     10  C   UNL     1     -42.949  57.539   5.330  0.00  0.00    +0.055 C 
ATOM     11  N   UNL     1     -43.843  56.762   4.812  0.00  0.00    -0.187 NA
BRANCH  11  12
ATOM     12  N   UNL     1     -43.383  55.823   3.932  0.00  0.00    -0.203 N 
ATOM     13  C   UNL     1     -44.164  55.478   2.835  0.00  0.00    +0.263 C 
ATOM     14  O   UNL     1     -45.261  55.960   2.562  0.00  0.00    -0.268 OA
ATOM     15  H   UNL     1     -42.508  55.396   4.073  0.00  0.00    +0.000 HD
BRANCH  13  16
ATOM     16  C   UNL     1     -43.571  54.460   1.918  0.00  0.00    +0.038 A 
ATOM     17  C   UNL     1     -44.111  54.166   0.660  0.00  0.00    -0.048 A 
ATOM     18  C   UNL     1     -43.507  53.198  -0.154  0.00  0.00    -0.040 A 
ATOM     19  C   UNL     1     -42.383  52.490   0.283  0.00  0.00    +0.025 A 
ATOM     20  C   UNL     1     -41.800  52.850   1.499  0.00  0.00    -0.040 A 
ATOM     21  C   UNL     1     -42.396  53.814   2.320  0.00  0.00    -0.048 A 
BRANCH  19  22
ATOM     22  N   UNL     1     -41.720  51.616  -0.583  0.00  0.00    -0.358 N 
ATOM     23  H   UNL     1     -40.848  51.867  -0.964  0.00  0.00    +0.000 HD
ATOM     24  H   UNL     1     -42.125  50.747  -0.811  0.00  0.00    +0.000 HD
ENDBRANCH  19  22
ENDBRANCH  13  16
ENDBRANCH  11  12
ENDBRANCH   9  10
BRANCH   7  25
ATOM     25  C   UNL     1     -43.147  60.262   9.497  0.00  0.00    +0.048 C 
BRANCH  25  26
ATOM     26  C   UNL     1     -41.795  60.913   9.642  0.00  0.00    -0.028 A 
ATOM     27  C   UNL     1     -40.632  60.133   9.727  0.00  0.00    -0.056 A 
ATOM     28  C   UNL     1     -39.394  60.728   9.978  0.00  0.00    -0.047 A 
ATOM     29  C   UNL     1     -39.310  62.109  10.131  0.00  0.00    +0.018 A 
ATOM     30  C   UNL     1     -40.444  62.906   9.992  0.00  0.00    -0.047 A 
ATOM     31  C   UNL     1     -41.683  62.308   9.746  0.00  0.00    -0.056 A 
ATOM     32 BR   UNL     1     -37.652  62.903  10.568  0.00  0.00    -0.050 Br
ENDBRANCH  25  26
ENDBRANCH   7  25
TORSDOF 6
ENDMDL
