MODEL 1
REMARK VINA RESULT:    -9.190      0.000      0.000
REMARK INTER + INTRA:         -13.036
REMARK INTER:                 -12.145
REMARK INTRA:                  -0.890
REMARK UNBOUND:                -0.890
REMARK  Name = 27c.sdf
REMARK  6 active torsions:
REMARK  status: ('A' for Active; 'I' for Inactive)
REMARK    1  A    between atoms: N_7  and  C_10
REMARK    2  A    between atoms: C_9  and  C_18
REMARK    3  A    between atoms: C_10  and  C_11
REMARK    4  A    between atoms: N_19  and  N_20
REMARK    5  A    between atoms: C_21  and  C_23
REMARK    6  A    between atoms: C_26  and  N_29
REMARK                            x       y       z     vdW  Elec       q    Type
REMARK                         _______ _______ _______ _____ _____    ______ ____
ROOT
ATOM      1  C   UNL     1     -45.011  54.956  -1.397  0.00  0.00    -0.061 A 
ATOM      2  C   UNL     1     -44.709  53.691  -1.884  0.00  0.00    -0.060 A 
ATOM      3  C   UNL     1     -43.960  52.787  -1.124  0.00  0.00    -0.038 A 
ATOM      4  C   UNL     1     -43.519  53.187   0.151  0.00  0.00    +0.050 A 
ATOM      5  C   UNL     1     -43.861  54.436   0.682  0.00  0.00    +0.009 A 
ATOM      6  C   UNL     1     -44.605  55.334  -0.114  0.00  0.00    -0.052 A 
ATOM      7  N   UNL     1     -42.726  52.552   1.090  0.00  0.00    -0.342 N 
ATOM      8  C   UNL     1     -42.635  53.329   2.219  0.00  0.00    +0.015 A 
ATOM      9  C   UNL     1     -43.334  54.505   2.008  0.00  0.00    +0.020 A 
ENDROOT
BRANCH   9  10
ATOM     10  C   UNL     1     -43.500  55.579   2.964  0.00  0.00    +0.055 C 
ATOM     11  N   UNL     1     -44.680  55.888   3.391  0.00  0.00    -0.187 NA
BRANCH  11  12
ATOM     12  N   UNL     1     -44.746  56.923   4.287  0.00  0.00    -0.203 N 
ATOM     13  C   UNL     1     -45.335  58.122   3.905  0.00  0.00    +0.263 C 
ATOM     14  O   UNL     1     -45.830  58.347   2.805  0.00  0.00    -0.268 OA
ATOM     15  H   UNL     1     -44.380  56.818   5.195  0.00  0.00    +0.000 HD
BRANCH  13  16
ATOM     16  C   UNL     1     -45.392  59.184   4.953  0.00  0.00    +0.038 A 
ATOM     17  C   UNL     1     -46.238  60.293   4.859  0.00  0.00    -0.048 A 
ATOM     18  C   UNL     1     -46.240  61.260   5.874  0.00  0.00    -0.040 A 
ATOM     19  C   UNL     1     -45.380  61.153   6.971  0.00  0.00    +0.025 A 
ATOM     20  C   UNL     1     -44.605  60.000   7.102  0.00  0.00    -0.040 A 
ATOM     21  C   UNL     1     -44.594  59.029   6.093  0.00  0.00    -0.048 A 
BRANCH  19  22
ATOM     22  N   UNL     1     -45.472  62.062   8.030  0.00  0.00    -0.358 N 
ATOM     23  H   UNL     1     -45.548  61.734   8.955  0.00  0.00    +0.000 HD
ATOM     24  H   UNL     1     -45.460  63.030   7.850  0.00  0.00    +0.000 HD
ENDBRANCH  19  22
ENDBRANCH  13  16
ENDBRANCH  11  12
ENDBRANCH   9  10
BRANCH   7  25
ATOM     25  C   UNL     1     -41.980  51.307   0.902  0.00  0.00    +0.048 C 
BRANCH  25  26
ATOM     26  C   UNL     1     -40.873  51.466  -0.110  0.00  0.00    -0.028 A 
ATOM     27  C   UNL     1     -41.004  50.927  -1.399  0.00  0.00    -0.055 A 
ATOM     28  C   UNL     1     -39.926  50.941  -2.287  0.00  0.00    -0.043 A 
ATOM     29  C   UNL     1     -38.718  51.515  -1.899  0.00  0.00    +0.041 A 
ATOM     30  C   UNL     1     -38.595  52.121  -0.652  0.00  0.00    -0.043 A 
ATOM     31  C   UNL     1     -39.670  52.098   0.239  0.00  0.00    -0.055 A 
ATOM     32 CL   UNL     1     -37.362  51.443  -2.956  0.00  0.00    -0.084 Cl
ENDBRANCH  25  26
ENDBRANCH   7  25
TORSDOF 6
ENDMDL
MODEL 2
REMARK VINA RESULT:    -8.490      1.567      2.125
REMARK INTER + INTRA:         -12.111
REMARK INTER:                 -11.427
REMARK INTRA:                  -0.684
REMARK UNBOUND:                -0.890
REMARK  Name = 27c.sdf
REMARK  6 active torsions:
REMARK  status: ('A' for Active; 'I' for Inactive)
REMARK    1  A    between atoms: N_7  and  C_10
REMARK    2  A    between atoms: C_9  and  C_18
REMARK    3  A    between atoms: C_10  and  C_11
REMARK    4  A    between atoms: N_19  and  N_20
REMARK    5  A    between atoms: C_21  and  C_23
REMARK    6  A    between atoms: C_26  and  N_29
REMARK                            x       y       z     vdW  Elec       q    Type
REMARK                         _______ _______ _______ _____ _____    ______ ____
ROOT
ATOM      1  C   UNL     1     -44.322  56.600  -0.723  0.00  0.00    -0.061 A 
ATOM      2  C   UNL     1     -44.519  55.414  -1.419  0.00  0.00    -0.060 A 
ATOM      3  C   UNL     1     -44.287  54.175  -0.812  0.00  0.00    -0.038 A 
ATOM      4  C   UNL     1     -43.849  54.156   0.525  0.00  0.00    +0.050 A 
ATOM      5  C   UNL     1     -43.698  55.337   1.260  0.00  0.00    +0.009 A 
ATOM      6  C   UNL     1     -43.925  56.574   0.617  0.00  0.00    -0.052 A 
ATOM      7  N   UNL     1     -43.483  53.113   1.357  0.00  0.00    -0.342 N 
ATOM      8  C   UNL     1     -43.193  53.600   2.608  0.00  0.00    +0.015 A 
ATOM      9  C   UNL     1     -43.323  54.978   2.590  0.00  0.00    +0.020 A 
ENDROOT
BRANCH   9  10
ATOM     10  C   UNL     1     -43.126  55.864   3.718  0.00  0.00    +0.055 C 
ATOM     11  N   UNL     1     -42.889  57.120   3.519  0.00  0.00    -0.187 NA
BRANCH  11  12
ATOM     12  N   UNL     1     -42.706  57.885   4.642  0.00  0.00    -0.203 N 
ATOM     13  C   UNL     1     -43.704  58.765   5.040  0.00  0.00    +0.263 C 
ATOM     14  O   UNL     1     -44.778  58.920   4.468  0.00  0.00    -0.268 OA
ATOM     15  H   UNL     1     -41.873  57.811   5.162  0.00  0.00    +0.000 HD
BRANCH  13  16
ATOM     16  C   UNL     1     -43.433  59.535   6.290  0.00  0.00    +0.038 A 
ATOM     17  C   UNL     1     -44.448  60.132   7.045  0.00  0.00    -0.048 A 
ATOM     18  C   UNL     1     -44.128  60.848   8.206  0.00  0.00    -0.040 A 
ATOM     19  C   UNL     1     -42.799  61.008   8.610  0.00  0.00    +0.025 A 
ATOM     20  C   UNL     1     -41.801  60.335   7.903  0.00  0.00    -0.040 A 
ATOM     21  C   UNL     1     -42.110  59.618   6.740  0.00  0.00    -0.048 A 
BRANCH  19  22
ATOM     22  N   UNL     1     -42.502  61.626   9.828  0.00  0.00    -0.358 N 
ATOM     23  H   UNL     1     -41.922  62.422   9.849  0.00  0.00    +0.000 HD
ATOM     24  H   UNL     1     -42.874  61.267  10.666  0.00  0.00    +0.000 HD
ENDBRANCH  19  22
ENDBRANCH  13  16
ENDBRANCH  11  12
ENDBRANCH   9  10
BRANCH   7  25
ATOM     25  C   UNL     1     -43.301  51.713   0.971  0.00  0.00    +0.048 C 
BRANCH  25  26
ATOM     26  C   UNL     1     -42.047  51.518   0.153  0.00  0.00    -0.028 A 
ATOM     27  C   UNL     1     -40.828  52.070   0.575  0.00  0.00    -0.055 A 
ATOM     28  C   UNL     1     -39.703  52.018  -0.250  0.00  0.00    -0.043 A 
ATOM     29  C   UNL     1     -39.784  51.396  -1.492  0.00  0.00    +0.041 A 
ATOM     30  C   UNL     1     -40.964  50.777  -1.894  0.00  0.00    -0.043 A 
ATOM     31  C   UNL     1     -42.093  50.836  -1.073  0.00  0.00    -0.055 A 
ATOM     32 CL   UNL     1     -38.426  51.421  -2.549  0.00  0.00    -0.084 Cl
ENDBRANCH  25  26
ENDBRANCH   7  25
TORSDOF 6
ENDMDL
MODEL 3
REMARK VINA RESULT:    -8.281      1.216      1.321
REMARK INTER + INTRA:         -11.834
REMARK INTER:                 -10.873
REMARK INTRA:                  -0.961
REMARK UNBOUND:                -0.890
REMARK  Name = 27c.sdf
REMARK  6 active torsions:
REMARK  status: ('A' for Active; 'I' for Inactive)
REMARK    1  A    between atoms: N_7  and  C_10
REMARK    2  A    between atoms: C_9  and  C_18
REMARK    3  A    between atoms: C_10  and  C_11
REMARK    4  A    between atoms: N_19  and  N_20
REMARK    5  A    between atoms: C_21  and  C_23
REMARK    6  A    between atoms: C_26  and  N_29
REMARK                            x       y       z     vdW  Elec       q    Type
REMARK                         _______ _______ _______ _____ _____    ______ ____
ROOT
ATOM      1  C   UNL     1     -45.014  54.299  -1.540  0.00  0.00    -0.061 A 
ATOM      2  C   UNL     1     -44.378  53.122  -1.911  0.00  0.00    -0.060 A 
ATOM      3  C   UNL     1     -43.536  52.447  -1.021  0.00  0.00    -0.038 A 
ATOM      4  C   UNL     1     -43.347  52.988   0.264  0.00  0.00    +0.050 A 
ATOM      5  C   UNL     1     -44.022  54.143   0.676  0.00  0.00    +0.009 A 
ATOM      6  C   UNL     1     -44.855  54.811  -0.249  0.00  0.00    -0.052 A 
ATOM      7  N   UNL     1     -42.543  52.592   1.318  0.00  0.00    -0.342 N 
ATOM      8  C   UNL     1     -42.762  53.412   2.398  0.00  0.00    +0.015 A 
ATOM      9  C   UNL     1     -43.681  54.383   2.041  0.00  0.00    +0.020 A 
ENDROOT
BRANCH   9  10
ATOM     10  C   UNL     1     -44.195  55.425   2.905  0.00  0.00    +0.055 C 
ATOM     11  N   UNL     1     -43.661  56.602   2.885  0.00  0.00    -0.187 NA
BRANCH  11  12
ATOM     12  N   UNL     1     -44.203  57.526   3.742  0.00  0.00    -0.203 N 
ATOM     13  C   UNL     1     -43.368  58.416   4.404  0.00  0.00    +0.263 C 
ATOM     14  O   UNL     1     -42.148  58.465   4.283  0.00  0.00    -0.268 OA
ATOM     15  H   UNL     1     -45.177  57.557   3.886  0.00  0.00    +0.000 HD
BRANCH  13  16
ATOM     16  C   UNL     1     -44.045  59.406   5.293  0.00  0.00    +0.038 A 
ATOM     17  C   UNL     1     -45.306  59.941   5.007  0.00  0.00    -0.048 A 
ATOM     18  C   UNL     1     -45.886  60.873   5.878  0.00  0.00    -0.040 A 
ATOM     19  C   UNL     1     -45.209  61.307   7.022  0.00  0.00    +0.025 A 
ATOM     20  C   UNL     1     -43.993  60.702   7.348  0.00  0.00    -0.040 A 
ATOM     21  C   UNL     1     -43.404  59.772   6.483  0.00  0.00    -0.048 A 
BRANCH  19  22
ATOM     22  N   UNL     1     -45.844  62.148   7.940  0.00  0.00    -0.358 N 
ATOM     23  H   UNL     1     -46.329  62.945   7.625  0.00  0.00    +0.000 HD
ATOM     24  H   UNL     1     -45.808  61.943   8.903  0.00  0.00    +0.000 HD
ENDBRANCH  19  22
ENDBRANCH  13  16
ENDBRANCH  11  12
ENDBRANCH   9  10
BRANCH   7  25
ATOM     25  C   UNL     1     -41.518  51.549   1.288  0.00  0.00    +0.048 C 
BRANCH  25  26
ATOM     26  C   UNL     1     -40.282  52.001   0.550  0.00  0.00    -0.028 A 
ATOM     27  C   UNL     1     -40.050  51.587  -0.771  0.00  0.00    -0.055 A 
ATOM     28  C   UNL     1     -38.841  51.880  -1.404  0.00  0.00    -0.043 A 
ATOM     29  C   UNL     1     -37.864  52.606  -0.728  0.00  0.00    +0.041 A 
ATOM     30  C   UNL     1     -38.107  53.088   0.555  0.00  0.00    -0.043 A 
ATOM     31  C   UNL     1     -39.314  52.788   1.192  0.00  0.00    -0.055 A 
ATOM     32 CL   UNL     1     -36.337  52.879  -1.473  0.00  0.00    -0.084 Cl
ENDBRANCH  25  26
ENDBRANCH   7  25
TORSDOF 6
ENDMDL
