MODEL 1
REMARK VINA RESULT:    -6.805      0.000      0.000
REMARK INTER + INTRA:          -7.731
REMARK INTER:                  -7.600
REMARK INTRA:                  -0.131
REMARK UNBOUND:                -0.131
REMARK  Name = 2.sdf
REMARK  2 active torsions:
REMARK  status: ('A' for Active; 'I' for Inactive)
REMARK    1  A    between atoms: C_9  and  C_10
REMARK    2  A    between atoms: C_11  and  C_12
REMARK                            x       y       z     vdW  Elec       q    Type
REMARK                         _______ _______ _______ _____ _____    ______ ____
ROOT
ATOM      1  C   UNL     1     -41.741  59.511   7.719  0.00  0.00    -0.061 A 
ATOM      2  C   UNL     1     -41.706  60.093   8.981  0.00  0.00    -0.060 A 
ATOM      3  C   UNL     1     -42.786  60.840   9.455  0.00  0.00    -0.038 A 
ATOM      4  C   UNL     1     -43.899  60.982   8.617  0.00  0.00    +0.047 A 
ATOM      5  C   UNL     1     -43.975  60.409   7.343  0.00  0.00    +0.007 A 
ATOM      6  C   UNL     1     -42.861  59.663   6.892  0.00  0.00    -0.052 A 
ATOM      7  N   UNL     1     -45.073  61.667   8.827  0.00  0.00    -0.360 N 
ATOM      8  C   UNL     1     -45.885  61.567   7.729  0.00  0.00    +0.010 A 
ATOM      9  C   UNL     1     -45.245  60.780   6.795  0.00  0.00    +0.000 A 
ATOM     10  H   UNL     1     -45.298  62.160   9.650  0.00  0.00    +0.000 HD
ENDROOT
BRANCH   9  11
ATOM     11  C   UNL     1     -45.833  60.479   5.523  0.00  0.00    -0.046 C 
ATOM     12  C   UNL     1     -45.730  59.305   4.881  0.00  0.00    +0.023 C 
BRANCH  12  13
ATOM     13  C   UNL     1     -46.299  58.909   3.579  0.00  0.00    +0.330 C 
ATOM     14  O   UNL     1     -45.457  58.355   2.692  0.00  0.00    -0.478 OA
ATOM     15  O   UNL     1     -47.483  59.082   3.335  0.00  0.00    -0.246 OA
ENDBRANCH  12  13
ENDBRANCH   9  11
TORSDOF 2
ENDMDL
MODEL 2
REMARK VINA RESULT:    -6.794      3.848      5.711
REMARK INTER + INTRA:          -7.720
REMARK INTER:                  -7.572
REMARK INTRA:                  -0.148
REMARK UNBOUND:                -0.131
REMARK  Name = 2.sdf
REMARK  2 active torsions:
REMARK  status: ('A' for Active; 'I' for Inactive)
REMARK    1  A    between atoms: C_9  and  C_10
REMARK    2  A    between atoms: C_11  and  C_12
REMARK                            x       y       z     vdW  Elec       q    Type
REMARK                         _______ _______ _______ _____ _____    ______ ____
ROOT
ATOM      1  C   UNL     1     -47.277  61.411   8.260  0.00  0.00    -0.061 A 
ATOM      2  C   UNL     1     -47.746  61.381   6.951  0.00  0.00    -0.060 A 
ATOM      3  C   UNL     1     -46.910  60.998   5.900  0.00  0.00    -0.038 A 
ATOM      4  C   UNL     1     -45.589  60.648   6.210  0.00  0.00    +0.047 A 
ATOM      5  C   UNL     1     -45.082  60.661   7.513  0.00  0.00    +0.007 A 
ATOM      6  C   UNL     1     -45.953  61.059   8.553  0.00  0.00    -0.052 A 
ATOM      7  N   UNL     1     -44.569  60.254   5.377  0.00  0.00    -0.360 N 
ATOM      8  C   UNL     1     -43.426  60.033   6.098  0.00  0.00    +0.010 A 
ATOM      9  C   UNL     1     -43.710  60.258   7.428  0.00  0.00    +0.000 A 
ATOM     10  H   UNL     1     -44.648  60.145   4.401  0.00  0.00    +0.000 HD
ENDROOT
BRANCH   9  11
ATOM     11  C   UNL     1     -42.718  60.113   8.453  0.00  0.00    -0.046 C 
ATOM     12  C   UNL     1     -41.490  59.601   8.273  0.00  0.00    +0.023 C 
BRANCH  12  13
ATOM     13  C   UNL     1     -40.412  59.416   9.263  0.00  0.00    +0.330 C 
ATOM     14  O   UNL     1     -40.089  60.481  10.015  0.00  0.00    -0.478 OA
ATOM     15  O   UNL     1     -39.849  58.339   9.382  0.00  0.00    -0.246 OA
ENDBRANCH  12  13
ENDBRANCH   9  11
TORSDOF 2
ENDMDL
MODEL 3
REMARK VINA RESULT:    -6.755      2.385      4.284
REMARK INTER + INTRA:          -7.676
REMARK INTER:                  -7.486
REMARK INTRA:                  -0.190
REMARK UNBOUND:                -0.131
REMARK  Name = 2.sdf
REMARK  2 active torsions:
REMARK  status: ('A' for Active; 'I' for Inactive)
REMARK    1  A    between atoms: C_9  and  C_10
REMARK    2  A    between atoms: C_11  and  C_12
REMARK                            x       y       z     vdW  Elec       q    Type
REMARK                         _______ _______ _______ _____ _____    ______ ____
ROOT
ATOM      1  C   UNL     1     -46.967  61.015   5.924  0.00  0.00    -0.061 A 
ATOM      2  C   UNL     1     -47.588  61.486   7.075  0.00  0.00    -0.060 A 
ATOM      3  C   UNL     1     -46.891  61.567   8.282  0.00  0.00    -0.038 A 
ATOM      4  C   UNL     1     -45.551  61.158   8.292  0.00  0.00    +0.047 A 
ATOM      5  C   UNL     1     -44.890  60.683   7.154  0.00  0.00    +0.007 A 
ATOM      6  C   UNL     1     -45.627  60.608   5.950  0.00  0.00    -0.052 A 
ATOM      7  N   UNL     1     -44.653  61.121   9.332  0.00  0.00    -0.360 N 
ATOM      8  C   UNL     1     -43.451  60.623   8.905  0.00  0.00    +0.010 A 
ATOM      9  C   UNL     1     -43.554  60.357   7.556  0.00  0.00    +0.000 A 
ATOM     10  H   UNL     1     -44.847  61.411  10.254  0.00  0.00    +0.000 HD
ENDROOT
BRANCH   9  11
ATOM     11  C   UNL     1     -42.460  59.820   6.801  0.00  0.00    -0.046 C 
ATOM     12  C   UNL     1     -42.359  58.549   6.384  0.00  0.00    +0.023 C 
BRANCH  12  13
ATOM     13  C   UNL     1     -41.278  57.915   5.606  0.00  0.00    +0.330 C 
ATOM     14  O   UNL     1     -40.138  57.641   6.262  0.00  0.00    -0.478 OA
ATOM     15  O   UNL     1     -41.428  57.654   4.422  0.00  0.00    -0.246 OA
ENDBRANCH  12  13
ENDBRANCH   9  11
TORSDOF 2
ENDMDL
