MODEL 1
REMARK VINA RESULT:    -8.550      0.000      0.000
REMARK INTER + INTRA:         -10.733
REMARK INTER:                 -10.549
REMARK INTRA:                  -0.184
REMARK UNBOUND:                -0.184
REMARK  Name = 5d.sdf
REMARK  5 active torsions:
REMARK  status: ('A' for Active; 'I' for Inactive)
REMARK    1  A    between atoms: C_9  and  C_10
REMARK    2  A    between atoms: C_11  and  C_19
REMARK    3  A    between atoms: C_12  and  C_13
REMARK    4  A    between atoms: C_19  and  O_20
REMARK    5  A    between atoms: O_20  and  C_22
REMARK                            x       y       z     vdW  Elec       q    Type
REMARK                         _______ _______ _______ _____ _____    ______ ____
ROOT
ATOM      1  C   UNL     1     -47.373  61.381   6.356  0.00  0.00    -0.061 A 
ATOM      2  C   UNL     1     -47.169  61.695   7.693  0.00  0.00    -0.060 A 
ATOM      3  C   UNL     1     -45.987  61.326   8.341  0.00  0.00    -0.037 A 
ATOM      4  C   UNL     1     -45.005  60.628   7.613  0.00  0.00    +0.057 A 
ATOM      5  C   UNL     1     -45.189  60.307   6.259  0.00  0.00    +0.007 A 
ATOM      6  C   UNL     1     -46.395  60.690   5.633  0.00  0.00    -0.052 A 
ATOM      7  N   UNL     1     -43.731  60.198   7.984  0.00  0.00    -0.283 N 
ATOM      8  C   UNL     1     -43.171  59.545   6.894  0.00  0.00    +0.021 A 
ATOM      9  C   UNL     1     -44.020  59.620   5.815  0.00  0.00    +0.001 A 
ATOM     10  C   UNL     1     -43.087  60.399   9.233  0.00  0.00    +0.263 C 
ATOM     11  O   UNL     1     -43.779  60.603  10.227  0.00  0.00    -0.267 OA
ENDROOT
BRANCH  10  12
ATOM     12  C   UNL     1     -41.608  60.380   9.385  0.00  0.00    +0.040 A 
ATOM     13  C   UNL     1     -40.894  59.208   9.099  0.00  0.00    -0.049 A 
ATOM     14  C   UNL     1     -39.518  59.160   9.308  0.00  0.00    -0.061 A 
ATOM     15  C   UNL     1     -38.847  60.293   9.766  0.00  0.00    -0.062 A 
ATOM     16  C   UNL     1     -39.546  61.481   9.989  0.00  0.00    -0.061 A 
ATOM     17  C   UNL     1     -40.928  61.533   9.791  0.00  0.00    -0.049 A 
ENDBRANCH  10  12
BRANCH   9  18
ATOM     18  C   UNL     1     -43.761  59.099   4.502  0.00  0.00    -0.046 C 
ATOM     19  C   UNL     1     -44.493  58.159   3.881  0.00  0.00    +0.023 C 
BRANCH  19  20
ATOM     20  C   UNL     1     -44.250  57.596   2.536  0.00  0.00    +0.332 C 
ATOM     21  O   UNL     1     -43.138  57.629   2.028  0.00  0.00    -0.246 OA
BRANCH  20  22
ATOM     22  O   UNL     1     -45.366  57.073   1.971  0.00  0.00    -0.465 OA
ATOM     23  C   UNL     1     -45.326  55.646   1.859  0.00  0.00    +0.082 C 
ENDBRANCH  20  22
ENDBRANCH  19  20
ENDBRANCH   9  18
TORSDOF 4
ENDMDL
MODEL 2
REMARK VINA RESULT:    -8.099      4.300      7.910
REMARK INTER + INTRA:         -10.177
REMARK INTER:                  -9.692
REMARK INTRA:                  -0.486
REMARK UNBOUND:                -0.184
REMARK  Name = 5d.sdf
REMARK  5 active torsions:
REMARK  status: ('A' for Active; 'I' for Inactive)
REMARK    1  A    between atoms: C_9  and  C_10
REMARK    2  A    between atoms: C_11  and  C_19
REMARK    3  A    between atoms: C_12  and  C_13
REMARK    4  A    between atoms: C_19  and  O_20
REMARK    5  A    between atoms: O_20  and  C_22
REMARK                            x       y       z     vdW  Elec       q    Type
REMARK                         _______ _______ _______ _____ _____    ______ ____
ROOT
ATOM      1  C   UNL     1     -44.819  54.274  -1.570  0.00  0.00    -0.061 A 
ATOM      2  C   UNL     1     -45.539  55.394  -1.179  0.00  0.00    -0.060 A 
ATOM      3  C   UNL     1     -45.424  55.900   0.119  0.00  0.00    -0.037 A 
ATOM      4  C   UNL     1     -44.564  55.251   1.025  0.00  0.00    +0.057 A 
ATOM      5  C   UNL     1     -43.823  54.121   0.647  0.00  0.00    +0.007 A 
ATOM      6  C   UNL     1     -43.962  53.631  -0.670  0.00  0.00    -0.052 A 
ATOM      7  N   UNL     1     -44.217  55.569   2.338  0.00  0.00    -0.283 N 
ATOM      8  C   UNL     1     -43.337  54.596   2.790  0.00  0.00    +0.021 A 
ATOM      9  C   UNL     1     -43.049  53.714   1.775  0.00  0.00    +0.001 A 
ATOM     10  C   UNL     1     -44.651  56.691   3.092  0.00  0.00    +0.263 C 
ATOM     11  O   UNL     1     -45.704  57.240   2.780  0.00  0.00    -0.267 OA
ENDROOT
BRANCH  10  12
ATOM     12  C   UNL     1     -43.877  57.232   4.241  0.00  0.00    +0.040 A 
ATOM     13  C   UNL     1     -42.731  58.004   4.007  0.00  0.00    -0.049 A 
ATOM     14  C   UNL     1     -41.961  58.453   5.077  0.00  0.00    -0.061 A 
ATOM     15  C   UNL     1     -42.354  58.164   6.383  0.00  0.00    -0.062 A 
ATOM     16  C   UNL     1     -43.531  57.451   6.621  0.00  0.00    -0.061 A 
ATOM     17  C   UNL     1     -44.302  56.990   5.551  0.00  0.00    -0.049 A 
ENDBRANCH  10  12
BRANCH   9  18
ATOM     18  C   UNL     1     -42.142  52.604   1.856  0.00  0.00    -0.046 C 
ATOM     19  C   UNL     1     -42.429  51.339   1.503  0.00  0.00    +0.023 C 
BRANCH  19  20
ATOM     20  C   UNL     1     -41.523  50.174   1.581  0.00  0.00    +0.332 C 
ATOM     21  O   UNL     1     -40.570  50.164   2.347  0.00  0.00    -0.246 OA
BRANCH  20  22
ATOM     22  O   UNL     1     -41.869  49.177   0.731  0.00  0.00    -0.465 OA
ATOM     23  C   UNL     1     -41.369  49.367  -0.597  0.00  0.00    +0.082 C 
ENDBRANCH  20  22
ENDBRANCH  19  20
ENDBRANCH   9  18
TORSDOF 4
ENDMDL
MODEL 3
REMARK VINA RESULT:    -7.889      2.347      7.453
REMARK INTER + INTRA:          -9.918
REMARK INTER:                  -9.521
REMARK INTRA:                  -0.396
REMARK UNBOUND:                -0.184
REMARK  Name = 5d.sdf
REMARK  5 active torsions:
REMARK  status: ('A' for Active; 'I' for Inactive)
REMARK    1  A    between atoms: C_9  and  C_10
REMARK    2  A    between atoms: C_11  and  C_19
REMARK    3  A    between atoms: C_12  and  C_13
REMARK    4  A    between atoms: C_19  and  O_20
REMARK    5  A    between atoms: O_20  and  C_22
REMARK                            x       y       z     vdW  Elec       q    Type
REMARK                         _______ _______ _______ _____ _____    ______ ____
ROOT
ATOM      1  C   UNL     1     -41.658  59.400   7.590  0.00  0.00    -0.061 A 
ATOM      2  C   UNL     1     -40.963  58.375   6.963  0.00  0.00    -0.060 A 
ATOM      3  C   UNL     1     -41.518  57.697   5.874  0.00  0.00    -0.037 A 
ATOM      4  C   UNL     1     -42.799  58.072   5.425  0.00  0.00    +0.057 A 
ATOM      5  C   UNL     1     -43.515  59.109   6.041  0.00  0.00    +0.007 A 
ATOM      6  C   UNL     1     -42.929  59.774   7.141  0.00  0.00    -0.052 A 
ATOM      7  N   UNL     1     -43.553  57.616   4.344  0.00  0.00    -0.283 N 
ATOM      8  C   UNL     1     -44.757  58.307   4.347  0.00  0.00    +0.021 A 
ATOM      9  C   UNL     1     -44.755  59.249   5.350  0.00  0.00    +0.001 A 
ATOM     10  C   UNL     1     -43.176  56.640   3.384  0.00  0.00    +0.263 C 
ATOM     11  O   UNL     1     -42.316  55.817   3.687  0.00  0.00    -0.267 OA
ENDROOT
BRANCH  10  12
ATOM     12  C   UNL     1     -43.775  56.580   2.025  0.00  0.00    +0.040 A 
ATOM     13  C   UNL     1     -44.638  55.527   1.691  0.00  0.00    -0.049 A 
ATOM     14  C   UNL     1     -45.146  55.424   0.398  0.00  0.00    -0.061 A 
ATOM     15  C   UNL     1     -44.823  56.391  -0.553  0.00  0.00    -0.062 A 
ATOM     16  C   UNL     1     -44.015  57.476  -0.205  0.00  0.00    -0.061 A 
ATOM     17  C   UNL     1     -43.495  57.580   1.088  0.00  0.00    -0.049 A 
ENDBRANCH  10  12
BRANCH   9  18
ATOM     18  C   UNL     1     -45.810  60.183   5.630  0.00  0.00    -0.046 C 
ATOM     19  C   UNL     1     -46.222  60.542   6.857  0.00  0.00    +0.023 C 
BRANCH  19  20
ATOM     20  C   UNL     1     -47.307  61.492   7.180  0.00  0.00    +0.332 C 
ATOM     21  O   UNL     1     -48.401  61.412   6.638  0.00  0.00    -0.246 OA
BRANCH  20  22
ATOM     22  O   UNL     1     -46.945  62.418   8.102  0.00  0.00    -0.465 OA
ATOM     23  C   UNL     1     -45.630  62.206   8.628  0.00  0.00    +0.082 C 
ENDBRANCH  20  22
ENDBRANCH  19  20
ENDBRANCH   9  18
TORSDOF 4
ENDMDL
