MODEL 1
REMARK VINA RESULT:    -9.338      0.000      0.000
REMARK INTER + INTRA:         -12.815
REMARK INTER:                 -12.067
REMARK INTRA:                  -0.748
REMARK UNBOUND:                -0.748
REMARK  Name = 8c.sdf
REMARK  5 active torsions:
REMARK  status: ('A' for Active; 'I' for Inactive)
REMARK    1  A    between atoms: N_7  and  C_12
REMARK    2  A    between atoms: C_9  and  C_10
REMARK    3  A    between atoms: N_11  and  N_20
REMARK    4  A    between atoms: C_12  and  C_13
REMARK    5  A    between atoms: C_21  and  C_23
REMARK                            x       y       z     vdW  Elec       q    Type
REMARK                         _______ _______ _______ _____ _____    ______ ____
ROOT
ATOM      1  C   UNL     1     -45.062  54.640  -1.500  0.00  0.00    -0.061 A 
ATOM      2  C   UNL     1     -44.667  53.394  -1.975  0.00  0.00    -0.060 A 
ATOM      3  C   UNL     1     -43.902  52.533  -1.183  0.00  0.00    -0.038 A 
ATOM      4  C   UNL     1     -43.549  52.949   0.112  0.00  0.00    +0.050 A 
ATOM      5  C   UNL     1     -43.973  54.180   0.628  0.00  0.00    +0.009 A 
ATOM      6  C   UNL     1     -44.728  55.040  -0.204  0.00  0.00    -0.052 A 
ATOM      7  N   UNL     1     -42.783  52.348   1.091  0.00  0.00    -0.342 N 
ATOM      8  C   UNL     1     -42.774  53.127   2.221  0.00  0.00    +0.015 A 
ATOM      9  C   UNL     1     -43.511  54.271   1.977  0.00  0.00    +0.020 A 
ENDROOT
BRANCH   9  10
ATOM     10  C   UNL     1     -43.759  55.340   2.920  0.00  0.00    +0.055 C 
ATOM     11  N   UNL     1     -43.646  56.573   2.542  0.00  0.00    -0.187 NA
BRANCH  11  12
ATOM     12  N   UNL     1     -43.890  57.516   3.500  0.00  0.00    -0.203 N 
ATOM     13  C   UNL     1     -45.167  58.047   3.624  0.00  0.00    +0.263 C 
ATOM     14  O   UNL     1     -46.138  57.727   2.944  0.00  0.00    -0.268 OA
ATOM     15  H   UNL     1     -43.167  57.816   4.097  0.00  0.00    +0.000 HD
BRANCH  13  16
ATOM     16  C   UNL     1     -45.344  59.057   4.708  0.00  0.00    +0.038 A 
ATOM     17  C   UNL     1     -46.216  60.150   4.587  0.00  0.00    -0.049 A 
ATOM     18  C   UNL     1     -46.340  61.070   5.634  0.00  0.00    -0.047 A 
ATOM     19  C   UNL     1     -45.601  60.895   6.803  0.00  0.00    +0.018 A 
ATOM     20  C   UNL     1     -44.748  59.802   6.945  0.00  0.00    -0.047 A 
ATOM     21  C   UNL     1     -44.625  58.882   5.898  0.00  0.00    -0.049 A 
ATOM     22 BR   UNL     1     -45.767  62.143   8.214  0.00  0.00    -0.050 Br
ENDBRANCH  13  16
ENDBRANCH  11  12
ENDBRANCH   9  10
BRANCH   7  23
ATOM     23  C   UNL     1     -42.001  51.120   0.946  0.00  0.00    +0.048 C 
BRANCH  23  24
ATOM     24  C   UNL     1     -40.869  51.291  -0.036  0.00  0.00    -0.028 A 
ATOM     25  C   UNL     1     -39.755  52.081   0.290  0.00  0.00    -0.055 A 
ATOM     26  C   UNL     1     -38.755  52.321  -0.655  0.00  0.00    -0.043 A 
ATOM     27  C   UNL     1     -38.857  51.764  -1.928  0.00  0.00    +0.041 A 
ATOM     28  C   UNL     1     -39.932  50.940  -2.252  0.00  0.00    -0.043 A 
ATOM     29  C   UNL     1     -40.934  50.703  -1.308  0.00  0.00    -0.055 A 
ATOM     30 CL   UNL     1     -37.657  52.113  -3.110  0.00  0.00    -0.084 Cl
ENDBRANCH  23  24
ENDBRANCH   7  23
TORSDOF 5
ENDMDL
MODEL 2
REMARK VINA RESULT:    -8.904      5.136     10.600
REMARK INTER + INTRA:         -12.255
REMARK INTER:                 -11.649
REMARK INTRA:                  -0.606
REMARK UNBOUND:                -0.748
REMARK  Name = 8c.sdf
REMARK  5 active torsions:
REMARK  status: ('A' for Active; 'I' for Inactive)
REMARK    1  A    between atoms: N_7  and  C_12
REMARK    2  A    between atoms: C_9  and  C_10
REMARK    3  A    between atoms: N_11  and  N_20
REMARK    4  A    between atoms: C_12  and  C_13
REMARK    5  A    between atoms: C_21  and  C_23
REMARK                            x       y       z     vdW  Elec       q    Type
REMARK                         _______ _______ _______ _____ _____    ______ ____
ROOT
ATOM      1  C   UNL     1     -46.184  60.859   5.232  0.00  0.00    -0.061 A 
ATOM      2  C   UNL     1     -46.119  61.672   6.358  0.00  0.00    -0.060 A 
ATOM      3  C   UNL     1     -45.207  61.406   7.384  0.00  0.00    -0.038 A 
ATOM      4  C   UNL     1     -44.349  60.302   7.248  0.00  0.00    +0.050 A 
ATOM      5  C   UNL     1     -44.366  59.495   6.103  0.00  0.00    +0.009 A 
ATOM      6  C   UNL     1     -45.313  59.776   5.091  0.00  0.00    -0.052 A 
ATOM      7  N   UNL     1     -43.392  59.775   8.094  0.00  0.00    -0.342 N 
ATOM      8  C   UNL     1     -42.767  58.715   7.488  0.00  0.00    +0.015 A 
ATOM      9  C   UNL     1     -43.336  58.514   6.245  0.00  0.00    +0.020 A 
ENDROOT
BRANCH   9  10
ATOM     10  C   UNL     1     -42.948  57.505   5.283  0.00  0.00    +0.055 C 
ATOM     11  N   UNL     1     -43.839  56.703   4.795  0.00  0.00    -0.187 NA
BRANCH  11  12
ATOM     12  N   UNL     1     -43.381  55.776   3.901  0.00  0.00    -0.203 N 
ATOM     13  C   UNL     1     -44.177  55.421   2.819  0.00  0.00    +0.263 C 
ATOM     14  O   UNL     1     -45.284  55.889   2.569  0.00  0.00    -0.268 OA
ATOM     15  H   UNL     1     -42.496  55.363   4.023  0.00  0.00    +0.000 HD
BRANCH  13  16
ATOM     16  C   UNL     1     -43.589  54.414   1.888  0.00  0.00    +0.038 A 
ATOM     17  C   UNL     1     -44.134  54.147   0.623  0.00  0.00    -0.049 A 
ATOM     18  C   UNL     1     -43.544  53.190  -0.209  0.00  0.00    -0.047 A 
ATOM     19  C   UNL     1     -42.406  52.506   0.217  0.00  0.00    +0.018 A 
ATOM     20  C   UNL     1     -41.842  52.778   1.463  0.00  0.00    -0.047 A 
ATOM     21  C   UNL     1     -42.432  53.736   2.294  0.00  0.00    -0.049 A 
ATOM     22 BR   UNL     1     -41.614  51.209  -0.907  0.00  0.00    -0.050 Br
ENDBRANCH  13  16
ENDBRANCH  11  12
ENDBRANCH   9  10
BRANCH   7  23
ATOM     23  C   UNL     1     -43.132  60.192   9.471  0.00  0.00    +0.048 C 
BRANCH  23  24
ATOM     24  C   UNL     1     -41.772  60.830   9.614  0.00  0.00    -0.028 A 
ATOM     25  C   UNL     1     -40.616  60.037   9.687  0.00  0.00    -0.055 A 
ATOM     26  C   UNL     1     -39.369  60.620   9.919  0.00  0.00    -0.043 A 
ATOM     27  C   UNL     1     -39.268  62.002  10.068  0.00  0.00    +0.041 A 
ATOM     28  C   UNL     1     -40.398  62.808   9.950  0.00  0.00    -0.043 A 
ATOM     29  C   UNL     1     -41.646  62.223   9.722  0.00  0.00    -0.055 A 
ATOM     30 CL   UNL     1     -37.740  62.713  10.417  0.00  0.00    -0.084 Cl
ENDBRANCH  23  24
ENDBRANCH   7  23
TORSDOF 5
ENDMDL
MODEL 3
REMARK VINA RESULT:    -8.558      5.277      9.071
REMARK INTER + INTRA:         -11.807
REMARK INTER:                 -11.177
REMARK INTRA:                  -0.631
REMARK UNBOUND:                -0.748
REMARK  Name = 8c.sdf
REMARK  5 active torsions:
REMARK  status: ('A' for Active; 'I' for Inactive)
REMARK    1  A    between atoms: N_7  and  C_12
REMARK    2  A    between atoms: C_9  and  C_10
REMARK    3  A    between atoms: N_11  and  N_20
REMARK    4  A    between atoms: C_12  and  C_13
REMARK    5  A    between atoms: C_21  and  C_23
REMARK                            x       y       z     vdW  Elec       q    Type
REMARK                         _______ _______ _______ _____ _____    ______ ____
ROOT
ATOM      1  C   UNL     1     -46.796  61.975   8.025  0.00  0.00    -0.061 A 
ATOM      2  C   UNL     1     -47.717  61.403   7.154  0.00  0.00    -0.060 A 
ATOM      3  C   UNL     1     -47.295  60.612   6.081  0.00  0.00    -0.038 A 
ATOM      4  C   UNL     1     -45.918  60.398   5.909  0.00  0.00    +0.050 A 
ATOM      5  C   UNL     1     -44.974  60.926   6.799  0.00  0.00    +0.009 A 
ATOM      6  C   UNL     1     -45.429  61.740   7.862  0.00  0.00    -0.052 A 
ATOM      7  N   UNL     1     -45.212  59.711   4.940  0.00  0.00    -0.342 N 
ATOM      8  C   UNL     1     -43.872  59.734   5.235  0.00  0.00    +0.015 A 
ATOM      9  C   UNL     1     -43.683  60.471   6.388  0.00  0.00    +0.020 A 
ENDROOT
BRANCH   9  10
ATOM     10  C   UNL     1     -42.417  60.720   7.043  0.00  0.00    +0.055 C 
ATOM     11  N   UNL     1     -42.258  60.394   8.285  0.00  0.00    -0.187 NA
BRANCH  11  12
ATOM     12  N   UNL     1     -41.033  60.674   8.823  0.00  0.00    -0.203 N 
ATOM     13  C   UNL     1     -40.879  61.805   9.616  0.00  0.00    +0.263 C 
ATOM     14  O   UNL     1     -41.773  62.595   9.905  0.00  0.00    -0.268 OA
ATOM     15  H   UNL     1     -40.267  60.081   8.650  0.00  0.00    +0.000 HD
BRANCH  13  16
ATOM     16  C   UNL     1     -39.512  62.020  10.173  0.00  0.00    +0.038 A 
ATOM     17  C   UNL     1     -38.514  61.034  10.129  0.00  0.00    -0.049 A 
ATOM     18  C   UNL     1     -37.250  61.288  10.670  0.00  0.00    -0.047 A 
ATOM     19  C   UNL     1     -36.978  62.528  11.248  0.00  0.00    +0.018 A 
ATOM     20  C   UNL     1     -37.953  63.523  11.279  0.00  0.00    -0.047 A 
ATOM     21  C   UNL     1     -39.217  63.269  10.737  0.00  0.00    -0.049 A 
ATOM     22 BR   UNL     1     -35.270  62.867  11.984  0.00  0.00    -0.050 Br
ENDBRANCH  13  16
ENDBRANCH  11  12
ENDBRANCH   9  10
BRANCH   7  23
ATOM     23  C   UNL     1     -45.764  59.126   3.718  0.00  0.00    +0.048 C 
BRANCH  23  24
ATOM     24  C   UNL     1     -44.946  57.950   3.243  0.00  0.00    -0.028 A 
ATOM     25  C   UNL     1     -44.250  58.010   2.026  0.00  0.00    -0.055 A 
ATOM     26  C   UNL     1     -43.576  56.889   1.538  0.00  0.00    -0.043 A 
ATOM     27  C   UNL     1     -43.584  55.704   2.270  0.00  0.00    +0.041 A 
ATOM     28  C   UNL     1     -44.229  55.641   3.501  0.00  0.00    -0.043 A 
ATOM     29  C   UNL     1     -44.907  56.761   3.988  0.00  0.00    -0.055 A 
ATOM     30 CL   UNL     1     -42.806  54.306   1.636  0.00  0.00    -0.084 Cl
ENDBRANCH  23  24
ENDBRANCH   7  23
TORSDOF 5
ENDMDL
