MODEL 1
REMARK VINA RESULT:   -10.114      0.000      0.000
REMARK INTER + INTRA:         -12.359
REMARK INTER:                 -12.479
REMARK INTRA:                   0.120
REMARK UNBOUND:                 0.120
REMARK  Name = 8d.sdf
REMARK  4 active torsions:
REMARK  status: ('A' for Active; 'I' for Inactive)
REMARK    1  A    between atoms: C_9  and  C_10
REMARK    2  A    between atoms: N_11  and  N_19
REMARK    3  A    between atoms: C_12  and  C_13
REMARK    4  A    between atoms: C_20  and  C_22
REMARK                            x       y       z     vdW  Elec       q    Type
REMARK                         _______ _______ _______ _____ _____    ______ ____
ROOT
ATOM      1  C   UNL     1     -46.603  60.081   4.526  0.00  0.00    -0.061 A 
ATOM      2  C   UNL     1     -46.555  61.002   5.564  0.00  0.00    -0.060 A 
ATOM      3  C   UNL     1     -45.573  60.914   6.554  0.00  0.00    -0.037 A 
ATOM      4  C   UNL     1     -44.638  59.863   6.485  0.00  0.00    +0.057 A 
ATOM      5  C   UNL     1     -44.655  58.935   5.434  0.00  0.00    +0.009 A 
ATOM      6  C   UNL     1     -45.659  59.049   4.445  0.00  0.00    -0.052 A 
ATOM      7  N   UNL     1     -43.561  59.550   7.311  0.00  0.00    -0.282 N 
ATOM      8  C   UNL     1     -42.945  58.425   6.796  0.00  0.00    +0.023 A 
ATOM      9  C   UNL     1     -43.571  58.027   5.633  0.00  0.00    +0.020 A 
ATOM     10  C   UNL     1     -43.142  60.236   8.478  0.00  0.00    +0.263 C 
ATOM     11  O   UNL     1     -44.001  60.825   9.140  0.00  0.00    -0.267 OA
ENDROOT
BRANCH  10  12
ATOM     12  C   UNL     1     -41.733  60.242   8.944  0.00  0.00    +0.040 A 
ATOM     13  C   UNL     1     -40.931  59.102   8.791  0.00  0.00    -0.049 A 
ATOM     14  C   UNL     1     -39.658  59.064   9.357  0.00  0.00    -0.061 A 
ATOM     15  C   UNL     1     -39.167  60.180  10.032  0.00  0.00    -0.062 A 
ATOM     16  C   UNL     1     -39.929  61.347  10.110  0.00  0.00    -0.061 A 
ATOM     17  C   UNL     1     -41.210  61.385   9.558  0.00  0.00    -0.049 A 
ENDBRANCH  10  12
BRANCH   9  18
ATOM     18  C   UNL     1     -43.175  56.889   4.824  0.00  0.00    +0.055 C 
ATOM     19  N   UNL     1     -43.193  57.002   3.535  0.00  0.00    -0.187 NA
BRANCH  19  20
ATOM     20  N   UNL     1     -42.806  55.907   2.810  0.00  0.00    -0.203 N 
ATOM     21  C   UNL     1     -43.770  55.147   2.155  0.00  0.00    +0.263 C 
ATOM     22  O   UNL     1     -44.977  55.377   2.162  0.00  0.00    -0.268 OA
ATOM     23  H   UNL     1     -41.855  55.659   2.753  0.00  0.00    +0.000 HD
BRANCH  21  24
ATOM     24  C   UNL     1     -43.263  53.992   1.360  0.00  0.00    +0.038 A 
ATOM     25  C   UNL     1     -42.154  53.235   1.765  0.00  0.00    -0.049 A 
ATOM     26  C   UNL     1     -41.694  52.181   0.967  0.00  0.00    -0.047 A 
ATOM     27  C   UNL     1     -42.347  51.875  -0.225  0.00  0.00    +0.018 A 
ATOM     28  C   UNL     1     -43.476  52.591  -0.617  0.00  0.00    -0.047 A 
ATOM     29  C   UNL     1     -43.935  53.645   0.178  0.00  0.00    -0.049 A 
ATOM     30 BR   UNL     1     -41.693  50.480  -1.320  0.00  0.00    -0.050 Br
ENDBRANCH  21  24
ENDBRANCH  19  20
ENDBRANCH   9  18
TORSDOF 4
ENDMDL
MODEL 2
REMARK VINA RESULT:    -9.934      4.397      9.648
REMARK INTER + INTRA:         -12.137
REMARK INTER:                 -11.702
REMARK INTRA:                  -0.435
REMARK UNBOUND:                 0.120
REMARK  Name = 8d.sdf
REMARK  4 active torsions:
REMARK  status: ('A' for Active; 'I' for Inactive)
REMARK    1  A    between atoms: C_9  and  C_10
REMARK    2  A    between atoms: N_11  and  N_19
REMARK    3  A    between atoms: C_12  and  C_13
REMARK    4  A    between atoms: C_20  and  C_22
REMARK                            x       y       z     vdW  Elec       q    Type
REMARK                         _______ _______ _______ _____ _____    ______ ____
ROOT
ATOM      1  C   UNL     1     -46.675  61.796   7.980  0.00  0.00    -0.061 A 
ATOM      2  C   UNL     1     -47.567  61.274   7.053  0.00  0.00    -0.060 A 
ATOM      3  C   UNL     1     -47.113  60.515   5.972  0.00  0.00    -0.037 A 
ATOM      4  C   UNL     1     -45.728  60.299   5.834  0.00  0.00    +0.057 A 
ATOM      5  C   UNL     1     -44.812  60.799   6.770  0.00  0.00    +0.009 A 
ATOM      6  C   UNL     1     -45.300  61.563   7.855  0.00  0.00    -0.052 A 
ATOM      7  N   UNL     1     -45.012  59.580   4.880  0.00  0.00    -0.282 N 
ATOM      8  C   UNL     1     -43.671  59.665   5.205  0.00  0.00    +0.023 A 
ATOM      9  C   UNL     1     -43.505  60.386   6.368  0.00  0.00    +0.020 A 
ATOM     10  C   UNL     1     -45.529  58.876   3.764  0.00  0.00    +0.263 C 
ATOM     11  O   UNL     1     -46.575  59.289   3.256  0.00  0.00    -0.267 OA
ENDROOT
BRANCH  10  12
ATOM     12  C   UNL     1     -44.848  57.698   3.171  0.00  0.00    +0.040 A 
ATOM     13  C   UNL     1     -44.368  57.745   1.854  0.00  0.00    -0.049 A 
ATOM     14  C   UNL     1     -43.860  56.594   1.256  0.00  0.00    -0.061 A 
ATOM     15  C   UNL     1     -43.785  55.410   1.986  0.00  0.00    -0.062 A 
ATOM     16  C   UNL     1     -44.180  55.382   3.325  0.00  0.00    -0.061 A 
ATOM     17  C   UNL     1     -44.704  56.528   3.924  0.00  0.00    -0.049 A 
ENDBRANCH  10  12
BRANCH   9  18
ATOM     18  C   UNL     1     -42.228  60.657   7.003  0.00  0.00    +0.055 C 
ATOM     19  N   UNL     1     -42.179  60.751   8.292  0.00  0.00    -0.187 NA
BRANCH  19  20
ATOM     20  N   UNL     1     -40.953  61.001   8.850  0.00  0.00    -0.203 N 
ATOM     21  C   UNL     1     -40.793  62.111   9.673  0.00  0.00    +0.263 C 
ATOM     22  O   UNL     1     -41.678  62.913   9.960  0.00  0.00    -0.268 OA
ATOM     23  H   UNL     1     -40.194  60.402   8.670  0.00  0.00    +0.000 HD
BRANCH  21  24
ATOM     24  C   UNL     1     -39.437  62.293  10.267  0.00  0.00    +0.038 A 
ATOM     25  C   UNL     1     -38.540  61.227  10.426  0.00  0.00    -0.049 A 
ATOM     26  C   UNL     1     -37.292  61.442  11.021  0.00  0.00    -0.047 A 
ATOM     27  C   UNL     1     -36.934  62.721  11.445  0.00  0.00    +0.018 A 
ATOM     28  C   UNL     1     -37.798  63.797  11.252  0.00  0.00    -0.047 A 
ATOM     29  C   UNL     1     -39.046  63.583  10.659  0.00  0.00    -0.049 A 
ATOM     30 BR   UNL     1     -35.265  62.995  12.288  0.00  0.00    -0.050 Br
ENDBRANCH  21  24
ENDBRANCH  19  20
ENDBRANCH   9  18
TORSDOF 4
ENDMDL
MODEL 3
REMARK VINA RESULT:    -9.239      4.157      9.453
REMARK INTER + INTRA:         -11.279
REMARK INTER:                 -10.693
REMARK INTRA:                  -0.586
REMARK UNBOUND:                 0.120
REMARK  Name = 8d.sdf
REMARK  4 active torsions:
REMARK  status: ('A' for Active; 'I' for Inactive)
REMARK    1  A    between atoms: C_9  and  C_10
REMARK    2  A    between atoms: N_11  and  N_19
REMARK    3  A    between atoms: C_12  and  C_13
REMARK    4  A    between atoms: C_20  and  C_22
REMARK                            x       y       z     vdW  Elec       q    Type
REMARK                         _______ _______ _______ _____ _____    ______ ____
ROOT
ATOM      1  C   UNL     1     -43.932  51.829  -1.290  0.00  0.00    -0.061 A 
ATOM      2  C   UNL     1     -42.853  50.984  -1.510  0.00  0.00    -0.060 A 
ATOM      3  C   UNL     1     -41.737  51.015  -0.670  0.00  0.00    -0.037 A 
ATOM      4  C   UNL     1     -41.724  51.931   0.400  0.00  0.00    +0.057 A 
ATOM      5  C   UNL     1     -42.812  52.778   0.653  0.00  0.00    +0.009 A 
ATOM      6  C   UNL     1     -43.928  52.724  -0.213  0.00  0.00    -0.052 A 
ATOM      7  N   UNL     1     -40.768  52.162   1.387  0.00  0.00    -0.282 N 
ATOM      8  C   UNL     1     -41.246  53.161   2.214  0.00  0.00    +0.023 A 
ATOM      9  C   UNL     1     -42.505  53.553   1.812  0.00  0.00    +0.020 A 
ATOM     10  C   UNL     1     -39.518  51.512   1.546  0.00  0.00    +0.263 C 
ATOM     11  O   UNL     1     -38.959  51.084   0.533  0.00  0.00    -0.267 OA
ENDROOT
BRANCH  10  12
ATOM     12  C   UNL     1     -38.854  51.359   2.864  0.00  0.00    +0.040 A 
ATOM     13  C   UNL     1     -38.022  52.373   3.360  0.00  0.00    -0.049 A 
ATOM     14  C   UNL     1     -37.290  52.165   4.527  0.00  0.00    -0.061 A 
ATOM     15  C   UNL     1     -37.425  50.967   5.225  0.00  0.00    -0.062 A 
ATOM     16  C   UNL     1     -38.319  49.991   4.781  0.00  0.00    -0.061 A 
ATOM     17  C   UNL     1     -39.043  50.188   3.605  0.00  0.00    -0.049 A 
ENDBRANCH  10  12
BRANCH   9  18
ATOM     18  C   UNL     1     -43.306  54.572   2.466  0.00  0.00    +0.055 C 
ATOM     19  N   UNL     1     -42.766  55.291   3.396  0.00  0.00    -0.187 NA
BRANCH  19  20
ATOM     20  N   UNL     1     -43.556  56.244   3.982  0.00  0.00    -0.203 N 
ATOM     21  C   UNL     1     -43.306  57.588   3.727  0.00  0.00    +0.263 C 
ATOM     22  O   UNL     1     -42.414  58.016   2.998  0.00  0.00    -0.268 OA
ATOM     23  H   UNL     1     -44.294  55.980   4.577  0.00  0.00    +0.000 HD
BRANCH  21  24
ATOM     24  C   UNL     1     -44.232  58.560   4.377  0.00  0.00    +0.038 A 
ATOM     25  C   UNL     1     -43.853  59.328   5.487  0.00  0.00    -0.049 A 
ATOM     26  C   UNL     1     -44.770  60.200   6.084  0.00  0.00    -0.047 A 
ATOM     27  C   UNL     1     -46.059  60.315   5.565  0.00  0.00    +0.018 A 
ATOM     28  C   UNL     1     -46.435  59.591   4.436  0.00  0.00    -0.047 A 
ATOM     29  C   UNL     1     -45.520  58.718   3.840  0.00  0.00    -0.049 A 
ATOM     30 BR   UNL     1     -47.307  61.462   6.403  0.00  0.00    -0.050 Br
ENDBRANCH  21  24
ENDBRANCH  19  20
ENDBRANCH   9  18
TORSDOF 4
ENDMDL
