MODEL 1
REMARK VINA RESULT:    -9.207      0.000      0.000
REMARK INTER + INTRA:         -12.950
REMARK INTER:                 -11.898
REMARK INTRA:                  -1.053
REMARK UNBOUND:                -1.053
REMARK  Name = 9a.sdf
REMARK  5 active torsions:
REMARK  status: ('A' for Active; 'I' for Inactive)
REMARK    1  A    between atoms: N_7  and  C_11
REMARK    2  A    between atoms: C_9  and  C_10
REMARK    3  A    between atoms: C_11  and  C_12
REMARK    4  A    between atoms: C_19  and  C_20
REMARK    5  A    between atoms: C_20  and  C_21
REMARK                            x       y       z     vdW  Elec       q    Type
REMARK                         _______ _______ _______ _____ _____    ______ ____
ROOT
ATOM      1  C   UNL     1     -44.058  57.679  -0.792  0.00  0.00    -0.061 A 
ATOM      2  C   UNL     1     -44.269  56.353  -1.151  0.00  0.00    -0.060 A 
ATOM      3  C   UNL     1     -44.119  55.322  -0.217  0.00  0.00    -0.038 A 
ATOM      4  C   UNL     1     -43.754  55.659   1.097  0.00  0.00    +0.050 A 
ATOM      5  C   UNL     1     -43.577  56.991   1.490  0.00  0.00    +0.007 A 
ATOM      6  C   UNL     1     -43.721  58.011   0.523  0.00  0.00    -0.052 A 
ATOM      7  N   UNL     1     -43.491  54.873   2.206  0.00  0.00    -0.342 N 
ATOM      8  C   UNL     1     -43.229  55.674   3.295  0.00  0.00    +0.013 A 
ATOM      9  C   UNL     1     -43.274  56.991   2.885  0.00  0.00    +0.000 A 
ENDROOT
BRANCH   9  10
ATOM     10  C   UNL     1     -43.070  58.146   3.708  0.00  0.00    -0.049 C 
ATOM     11  C   UNL     1     -43.921  58.594   4.643  0.00  0.00    -0.014 C 
BRANCH  11  12
ATOM     12  C   UNL     1     -43.642  59.850   5.389  0.00  0.00    +0.186 C 
ATOM     13  O   UNL     1     -42.543  60.399   5.362  0.00  0.00    -0.287 OA
BRANCH  12  14
ATOM     14  C   UNL     1     -44.753  60.392   6.211  0.00  0.00    +0.022 A 
ATOM     15  C   UNL     1     -45.987  60.646   5.599  0.00  0.00    -0.051 A 
ATOM     16  C   UNL     1     -47.034  61.198   6.341  0.00  0.00    -0.061 A 
ATOM     17  C   UNL     1     -46.857  61.481   7.697  0.00  0.00    -0.062 A 
ATOM     18  C   UNL     1     -45.646  61.196   8.316  0.00  0.00    -0.061 A 
ATOM     19  C   UNL     1     -44.596  60.643   7.582  0.00  0.00    -0.051 A 
ENDBRANCH  12  14
ENDBRANCH  11  12
ENDBRANCH   9  10
BRANCH   7  20
ATOM     20  C   UNL     1     -43.383  53.414   2.228  0.00  0.00    +0.048 C 
BRANCH  20  21
ATOM     21  C   UNL     1     -42.146  52.933   1.510  0.00  0.00    -0.028 A 
ATOM     22  C   UNL     1     -42.253  52.244   0.293  0.00  0.00    -0.056 A 
ATOM     23  C   UNL     1     -41.123  51.692  -0.313  0.00  0.00    -0.047 A 
ATOM     24  C   UNL     1     -39.876  51.839   0.288  0.00  0.00    +0.018 A 
ATOM     25  C   UNL     1     -39.741  52.574   1.463  0.00  0.00    -0.047 A 
ATOM     26  C   UNL     1     -40.873  53.122   2.071  0.00  0.00    -0.056 A 
ATOM     27 BR   UNL     1     -38.362  51.004  -0.477  0.00  0.00    -0.050 Br
ENDBRANCH  20  21
ENDBRANCH   7  20
TORSDOF 5
ENDMDL
MODEL 2
REMARK VINA RESULT:    -8.986      1.202      1.713
REMARK INTER + INTRA:         -12.665
REMARK INTER:                 -11.485
REMARK INTRA:                  -1.180
REMARK UNBOUND:                -1.053
REMARK  Name = 9a.sdf
REMARK  5 active torsions:
REMARK  status: ('A' for Active; 'I' for Inactive)
REMARK    1  A    between atoms: N_7  and  C_11
REMARK    2  A    between atoms: C_9  and  C_10
REMARK    3  A    between atoms: C_11  and  C_12
REMARK    4  A    between atoms: C_19  and  C_20
REMARK    5  A    between atoms: C_20  and  C_21
REMARK                            x       y       z     vdW  Elec       q    Type
REMARK                         _______ _______ _______ _____ _____    ______ ____
ROOT
ATOM      1  C   UNL     1     -44.272  57.041  -0.544  0.00  0.00    -0.061 A 
ATOM      2  C   UNL     1     -44.504  55.815  -1.157  0.00  0.00    -0.060 A 
ATOM      3  C   UNL     1     -44.283  54.615  -0.473  0.00  0.00    -0.038 A 
ATOM      4  C   UNL     1     -43.825  54.677   0.854  0.00  0.00    +0.050 A 
ATOM      5  C   UNL     1     -43.624  55.900   1.504  0.00  0.00    +0.007 A 
ATOM      6  C   UNL     1     -43.842  57.097   0.784  0.00  0.00    -0.052 A 
ATOM      7  N   UNL     1     -43.480  53.682   1.753  0.00  0.00    -0.342 N 
ATOM      8  C   UNL     1     -43.142  54.243   2.965  0.00  0.00    +0.013 A 
ATOM      9  C   UNL     1     -43.222  55.614   2.844  0.00  0.00    +0.000 A 
ENDROOT
BRANCH   9  10
ATOM     10  C   UNL     1     -42.963  56.576   3.873  0.00  0.00    -0.049 C 
ATOM     11  C   UNL     1     -43.797  56.882   4.878  0.00  0.00    -0.014 C 
BRANCH  11  12
ATOM     12  C   UNL     1     -43.456  57.953   5.853  0.00  0.00    +0.186 C 
ATOM     13  O   UNL     1     -42.478  57.882   6.591  0.00  0.00    -0.287 OA
BRANCH  12  14
ATOM     14  C   UNL     1     -44.390  59.106   5.921  0.00  0.00    +0.022 A 
ATOM     15  C   UNL     1     -45.323  59.284   4.892  0.00  0.00    -0.051 A 
ATOM     16  C   UNL     1     -46.182  60.386   4.911  0.00  0.00    -0.061 A 
ATOM     17  C   UNL     1     -46.122  61.301   5.964  0.00  0.00    -0.062 A 
ATOM     18  C   UNL     1     -45.222  61.107   7.005  0.00  0.00    -0.061 A 
ATOM     19  C   UNL     1     -44.363  60.008   6.995  0.00  0.00    -0.051 A 
ENDBRANCH  12  14
ENDBRANCH  11  12
ENDBRANCH   9  10
BRANCH   7  20
ATOM     20  C   UNL     1     -43.365  52.253   1.461  0.00  0.00    +0.048 C 
BRANCH  20  21
ATOM     21  C   UNL     1     -42.128  51.943   0.656  0.00  0.00    -0.028 A 
ATOM     22  C   UNL     1     -40.863  52.335   1.117  0.00  0.00    -0.056 A 
ATOM     23  C   UNL     1     -39.729  52.159   0.321  0.00  0.00    -0.047 A 
ATOM     24  C   UNL     1     -39.853  51.574  -0.936  0.00  0.00    +0.018 A 
ATOM     25  C   UNL     1     -41.091  51.121  -1.385  0.00  0.00    -0.047 A 
ATOM     26  C   UNL     1     -42.225  51.302  -0.590  0.00  0.00    -0.056 A 
ATOM     27 BR   UNL     1     -38.337  51.429  -2.056  0.00  0.00    -0.050 Br
ENDBRANCH  20  21
ENDBRANCH   7  20
TORSDOF 5
ENDMDL
MODEL 3
REMARK VINA RESULT:    -8.982      3.454      6.592
REMARK INTER + INTRA:         -12.661
REMARK INTER:                 -11.825
REMARK INTRA:                  -0.835
REMARK UNBOUND:                -1.053
REMARK  Name = 9a.sdf
REMARK  5 active torsions:
REMARK  status: ('A' for Active; 'I' for Inactive)
REMARK    1  A    between atoms: N_7  and  C_11
REMARK    2  A    between atoms: C_9  and  C_10
REMARK    3  A    between atoms: C_11  and  C_12
REMARK    4  A    between atoms: C_19  and  C_20
REMARK    5  A    between atoms: C_20  and  C_21
REMARK                            x       y       z     vdW  Elec       q    Type
REMARK                         _______ _______ _______ _____ _____    ______ ____
ROOT
ATOM      1  C   UNL     1     -46.626  61.796   8.182  0.00  0.00    -0.061 A 
ATOM      2  C   UNL     1     -47.567  61.452   7.219  0.00  0.00    -0.060 A 
ATOM      3  C   UNL     1     -47.204  60.713   6.088  0.00  0.00    -0.038 A 
ATOM      4  C   UNL     1     -45.862  60.321   5.949  0.00  0.00    +0.050 A 
ATOM      5  C   UNL     1     -44.905  60.622   6.926  0.00  0.00    +0.007 A 
ATOM      6  C   UNL     1     -45.298  61.381   8.052  0.00  0.00    -0.052 A 
ATOM      7  N   UNL     1     -45.205  59.639   4.939  0.00  0.00    -0.342 N 
ATOM      8  C   UNL     1     -43.888  59.440   5.289  0.00  0.00    +0.013 A 
ATOM      9  C   UNL     1     -43.670  60.036   6.514  0.00  0.00    +0.000 A 
ENDROOT
BRANCH   9  10
ATOM     10  C   UNL     1     -42.439  60.053   7.245  0.00  0.00    -0.049 C 
ATOM     11  C   UNL     1     -42.234  59.470   8.435  0.00  0.00    -0.014 C 
BRANCH  11  12
ATOM     12  C   UNL     1     -40.932  59.614   9.142  0.00  0.00    +0.186 C 
ATOM     13  O   UNL     1     -40.177  58.664   9.326  0.00  0.00    -0.287 OA
BRANCH  12  14
ATOM     14  C   UNL     1     -40.607  60.968   9.657  0.00  0.00    +0.022 A 
ATOM     15  C   UNL     1     -41.623  61.929   9.729  0.00  0.00    -0.051 A 
ATOM     16  C   UNL     1     -41.332  63.222  10.167  0.00  0.00    -0.061 A 
ATOM     17  C   UNL     1     -40.031  63.555  10.550  0.00  0.00    -0.062 A 
ATOM     18  C   UNL     1     -39.027  62.594  10.515  0.00  0.00    -0.061 A 
ATOM     19  C   UNL     1     -39.311  61.299  10.081  0.00  0.00    -0.051 A 
ENDBRANCH  12  14
ENDBRANCH  11  12
ENDBRANCH   9  10
BRANCH   7  20
ATOM     20  C   UNL     1     -45.762  59.274   3.636  0.00  0.00    +0.048 C 
BRANCH  20  21
ATOM     21  C   UNL     1     -45.155  58.000   3.104  0.00  0.00    -0.028 A 
ATOM     22  C   UNL     1     -45.453  56.766   3.701  0.00  0.00    -0.056 A 
ATOM     23  C   UNL     1     -44.801  55.602   3.291  0.00  0.00    -0.047 A 
ATOM     24  C   UNL     1     -43.857  55.662   2.269  0.00  0.00    +0.018 A 
ATOM     25  C   UNL     1     -43.594  56.867   1.622  0.00  0.00    -0.047 A 
ATOM     26  C   UNL     1     -44.243  58.032   2.037  0.00  0.00    -0.056 A 
ATOM     27 BR   UNL     1     -42.901  54.106   1.785  0.00  0.00    -0.050 Br
ENDBRANCH  20  21
ENDBRANCH   7  20
TORSDOF 5
ENDMDL
