MODEL 1
REMARK VINA RESULT:    -9.333      0.000      0.000
REMARK INTER + INTRA:         -15.709
REMARK INTER:                 -14.516
REMARK INTRA:                  -1.193
REMARK UNBOUND:                -1.193
REMARK  Name = native.pdb
REMARK  11 active torsions:
REMARK  status: ('A' for Active; 'I' for Inactive)
REMARK    1  A    between atoms: P_1  and  N_8
REMARK    2  A    between atoms: P_5  and  N_8
REMARK    3  A    between atoms: P_5  and  O_12
REMARK    4  A    between atoms: P_9  and  O_12
REMARK    5  A    between atoms: P_9  and  O_13
REMARK    6  A    between atoms: O_13  and  C_14
REMARK    7  A    between atoms: C_14  and  C_15
REMARK    8  A    between atoms: C_17  and  O_18
REMARK    9  A    between atoms: C_19  and  O_20
REMARK   10  A    between atoms: C_21  and  N_22
REMARK   11  A    between atoms: C_26  and  N_27
REMARK                            x       y       z     vdW  Elec       q    Type
REMARK                         _______ _______ _______ _____ _____    ______ ____
ROOT
ATOM      1  C   UNL     1     -42.814  57.662   3.306  0.00  0.00    +0.113 C 
ATOM      2  O   UNL     1     -43.214  58.991   3.709  0.00  0.00    -0.346 OA
ATOM      3  C   UNL     1     -42.177  57.040   4.550  0.00  0.00    +0.114 C 
ATOM      4  C   UNL     1     -42.967  57.666   5.691  0.00  0.00    +0.129 C 
ATOM      5  C   UNL     1     -43.209  59.081   5.159  0.00  0.00    +0.167 C 
ENDROOT
BRANCH   5   6
ATOM      6  N   UNL     1     -44.455  59.678   5.588  0.00  0.00    -0.286 N 
ATOM      7  C   UNL     1     -45.591  59.845   4.830  0.00  0.00    +0.100 A 
ATOM      8  N   UNL     1     -46.530  60.501   5.480  0.00  0.00    -0.231 NA
ATOM      9  C   UNL     1     -45.969  60.788   6.704  0.00  0.00    +0.147 A 
ATOM     10  C   UNL     1     -46.442  61.503   7.818  0.00  0.00    +0.147 A 
ATOM     11  N   UNL     1     -45.661  61.577   8.919  0.00  0.00    -0.219 NA
ATOM     12  C   UNL     1     -44.441  60.997   8.876  0.00  0.00    +0.120 A 
ATOM     13  N   UNL     1     -43.864  60.328   7.858  0.00  0.00    -0.216 NA
ATOM     14  C   UNL     1     -44.692  60.255   6.802  0.00  0.00    +0.167 A 
BRANCH  10  15
ATOM     15  N   UNL     1     -47.681  62.128   7.843  0.00  0.00    -0.341 N 
ATOM     16  H   UNL     1     -47.768  63.036   8.213  0.00  0.00    +0.000 HD
ATOM     17  H   UNL     1     -48.474  61.663   7.491  0.00  0.00    +0.000 HD
ENDBRANCH  10  15
ENDBRANCH   5   6
BRANCH   3  18
ATOM     18  O   UNL     1     -40.800  57.436   4.700  0.00  0.00    -0.386 OA
ATOM     19  H   UNL     1     -40.249  56.931   4.082  0.00  0.00    +0.000 HD
ENDBRANCH   3  18
BRANCH   4  20
ATOM     20  O   UNL     1     -42.221  57.623   6.905  0.00  0.00    -0.385 OA
ATOM     21  H   UNL     1     -41.918  56.716   7.067  0.00  0.00    +0.000 HD
ENDBRANCH   4  20
BRANCH   1  22
ATOM     22  C   UNL     1     -44.029  56.864   2.826  0.00  0.00    +0.088 C 
BRANCH  22  23
ATOM     23  O   UNL     1     -44.595  57.464   1.659  0.00  0.00    -0.284 OA
BRANCH  23  24
ATOM     24  P   UNL     1     -44.142  56.635   0.208  0.00  0.00    +0.483 P 
ATOM     25  O   UNL     1     -43.264  55.672   1.016  0.00  0.00    -0.227 OA
ATOM     26  O   UNL     1     -43.199  57.902  -0.215  0.00  0.00    -0.302 OA
BRANCH  24  27
ATOM     27  O   UNL     1     -43.688  55.807  -1.241  0.00  0.00    -0.196 OA
BRANCH  27  28
ATOM     28  P   UNL     1     -44.812  54.636  -1.308  0.00  0.00    +0.423 P 
ATOM     29  O   UNL     1     -45.097  54.206  -2.702  0.00  0.00    -0.239 OA
ATOM     30  O   UNL     1     -46.052  55.497  -0.769  0.00  0.00    -0.312 OA
BRANCH  28  31
ATOM     31  N   UNL     1     -44.695  53.568  -0.149  0.00  0.00    -0.125 NA
ATOM     32  H   UNL     1     -44.208  54.012   0.631  0.00  0.00    +0.000 HD
BRANCH  31  33
ATOM     33  P   UNL     1     -43.929  52.224  -0.492  0.00  0.00    +0.412 P 
ATOM     34  O   UNL     1     -42.485  52.303  -0.811  0.00  0.00    -0.240 OA
ATOM     35  O   UNL     1     -44.100  51.347   0.838  0.00  0.00    -0.312 OA
ATOM     36  O   UNL     1     -44.706  51.293  -1.521  0.00  0.00    -0.312 OA
ENDBRANCH  31  33
ENDBRANCH  28  31
ENDBRANCH  27  28
ENDBRANCH  24  27
ENDBRANCH  23  24
ENDBRANCH  22  23
ENDBRANCH   1  22
TORSDOF 11
ENDMDL
MODEL 2
REMARK VINA RESULT:    -8.999      1.889      3.170
REMARK INTER + INTRA:         -15.191
REMARK INTER:                 -13.692
REMARK INTRA:                  -1.499
REMARK UNBOUND:                -1.193
REMARK  Name = native.pdb
REMARK  11 active torsions:
REMARK  status: ('A' for Active; 'I' for Inactive)
REMARK    1  A    between atoms: P_1  and  N_8
REMARK    2  A    between atoms: P_5  and  N_8
REMARK    3  A    between atoms: P_5  and  O_12
REMARK    4  A    between atoms: P_9  and  O_12
REMARK    5  A    between atoms: P_9  and  O_13
REMARK    6  A    between atoms: O_13  and  C_14
REMARK    7  A    between atoms: C_14  and  C_15
REMARK    8  A    between atoms: C_17  and  O_18
REMARK    9  A    between atoms: C_19  and  O_20
REMARK   10  A    between atoms: C_21  and  N_22
REMARK   11  A    between atoms: C_26  and  N_27
REMARK                            x       y       z     vdW  Elec       q    Type
REMARK                         _______ _______ _______ _____ _____    ______ ____
ROOT
ATOM      1  C   UNL     1     -45.263  57.558   3.289  0.00  0.00    +0.113 C 
ATOM      2  O   UNL     1     -44.757  57.199   4.594  0.00  0.00    -0.346 OA
ATOM      3  C   UNL     1     -45.959  58.907   3.486  0.00  0.00    +0.114 C 
ATOM      4  C   UNL     1     -45.126  59.567   4.577  0.00  0.00    +0.129 C 
ATOM      5  C   UNL     1     -44.763  58.368   5.457  0.00  0.00    +0.167 C 
ENDROOT
BRANCH   5   6
ATOM      6  N   UNL     1     -43.474  58.469   6.106  0.00  0.00    -0.286 N 
ATOM      7  C   UNL     1     -42.354  57.719   5.831  0.00  0.00    +0.100 A 
ATOM      8  N   UNL     1     -41.361  57.988   6.654  0.00  0.00    -0.231 NA
ATOM      9  C   UNL     1     -41.870  58.939   7.511  0.00  0.00    +0.147 A 
ATOM     10  C   UNL     1     -41.325  59.592   8.630  0.00  0.00    +0.147 A 
ATOM     11  N   UNL     1     -42.068  60.533   9.255  0.00  0.00    -0.219 NA
ATOM     12  C   UNL     1     -43.318  60.766   8.799  0.00  0.00    +0.120 A 
ATOM     13  N   UNL     1     -43.961  60.177   7.770  0.00  0.00    -0.216 NA
ATOM     14  C   UNL     1     -43.170  59.275   7.165  0.00  0.00    +0.167 A 
BRANCH  10  15
ATOM     15  N   UNL     1     -40.053  59.322   9.117  0.00  0.00    -0.341 N 
ATOM     16  H   UNL     1     -39.498  58.632   8.687  0.00  0.00    +0.000 HD
ATOM     17  H   UNL     1     -39.707  59.819   9.892  0.00  0.00    +0.000 HD
ENDBRANCH  10  15
ENDBRANCH   5   6
BRANCH   3  18
ATOM     18  O   UNL     1     -47.298  58.749   3.991  0.00  0.00    -0.386 OA
ATOM     19  H   UNL     1     -47.702  57.960   3.597  0.00  0.00    +0.000 HD
ENDBRANCH   3  18
BRANCH   4  20
ATOM     20  O   UNL     1     -45.881  60.572   5.250  0.00  0.00    -0.385 OA
ATOM     21  H   UNL     1     -45.691  61.437   4.854  0.00  0.00    +0.000 HD
ENDBRANCH   4  20
BRANCH   1  22
ATOM     22  C   UNL     1     -44.117  57.648   2.280  0.00  0.00    +0.088 C 
BRANCH  22  23
ATOM     23  O   UNL     1     -44.612  58.011   0.988  0.00  0.00    -0.284 OA
BRANCH  23  24
ATOM     24  P   UNL     1     -44.144  56.880  -0.236  0.00  0.00    +0.483 P 
ATOM     25  O   UNL     1     -43.235  56.153   0.762  0.00  0.00    -0.227 OA
ATOM     26  O   UNL     1     -43.239  58.038  -0.953  0.00  0.00    -0.302 OA
BRANCH  24  27
ATOM     27  O   UNL     1     -43.677  55.750  -1.459  0.00  0.00    -0.196 OA
BRANCH  27  28
ATOM     28  P   UNL     1     -44.760  54.561  -1.230  0.00  0.00    +0.423 P 
ATOM     29  O   UNL     1     -45.082  53.841  -2.490  0.00  0.00    -0.239 OA
ATOM     30  O   UNL     1     -46.008  55.483  -0.828  0.00  0.00    -0.312 OA
BRANCH  28  31
ATOM     31  N   UNL     1     -44.562  53.764   0.119  0.00  0.00    -0.125 NA
ATOM     32  H   UNL     1     -44.148  54.404   0.797  0.00  0.00    +0.000 HD
BRANCH  31  33
ATOM     33  P   UNL     1     -43.647  52.472   0.056  0.00  0.00    +0.412 P 
ATOM     34  O   UNL     1     -42.388  52.542  -0.721  0.00  0.00    -0.240 OA
ATOM     35  O   UNL     1     -43.272  52.205   1.591  0.00  0.00    -0.312 OA
ATOM     36  O   UNL     1     -44.451  51.135  -0.253  0.00  0.00    -0.312 OA
ENDBRANCH  31  33
ENDBRANCH  28  31
ENDBRANCH  27  28
ENDBRANCH  24  27
ENDBRANCH  23  24
ENDBRANCH  22  23
ENDBRANCH   1  22
TORSDOF 11
ENDMDL
MODEL 3
REMARK VINA RESULT:    -8.431      3.041      5.489
REMARK INTER + INTRA:         -14.307
REMARK INTER:                 -12.943
REMARK INTRA:                  -1.364
REMARK UNBOUND:                -1.193
REMARK  Name = native.pdb
REMARK  11 active torsions:
REMARK  status: ('A' for Active; 'I' for Inactive)
REMARK    1  A    between atoms: P_1  and  N_8
REMARK    2  A    between atoms: P_5  and  N_8
REMARK    3  A    between atoms: P_5  and  O_12
REMARK    4  A    between atoms: P_9  and  O_12
REMARK    5  A    between atoms: P_9  and  O_13
REMARK    6  A    between atoms: O_13  and  C_14
REMARK    7  A    between atoms: C_14  and  C_15
REMARK    8  A    between atoms: C_17  and  O_18
REMARK    9  A    between atoms: C_19  and  O_20
REMARK   10  A    between atoms: C_21  and  N_22
REMARK   11  A    between atoms: C_26  and  N_27
REMARK                            x       y       z     vdW  Elec       q    Type
REMARK                         _______ _______ _______ _____ _____    ______ ____
ROOT
ATOM      1  C   UNL     1     -44.515  54.137   1.105  0.00  0.00    +0.113 C 
ATOM      2  O   UNL     1     -45.062  55.047   2.086  0.00  0.00    -0.346 OA
ATOM      3  C   UNL     1     -44.490  54.928  -0.205  0.00  0.00    +0.114 C 
ATOM      4  C   UNL     1     -44.226  56.353   0.258  0.00  0.00    +0.129 C 
ATOM      5  C   UNL     1     -45.016  56.404   1.569  0.00  0.00    +0.167 C 
ENDROOT
BRANCH   5   6
ATOM      6  N   UNL     1     -44.445  57.264   2.581  0.00  0.00    -0.286 N 
ATOM      7  C   UNL     1     -43.153  57.233   3.053  0.00  0.00    +0.100 A 
ATOM      8  N   UNL     1     -42.962  58.088   4.038  0.00  0.00    -0.231 NA
ATOM      9  C   UNL     1     -44.191  58.681   4.223  0.00  0.00    +0.147 A 
ATOM     10  C   UNL     1     -44.650  59.636   5.147  0.00  0.00    +0.147 A 
ATOM     11  N   UNL     1     -45.927  60.070   5.049  0.00  0.00    -0.219 NA
ATOM     12  C   UNL     1     -46.713  59.527   4.094  0.00  0.00    +0.120 A 
ATOM     13  N   UNL     1     -46.402  58.579   3.186  0.00  0.00    -0.216 NA
ATOM     14  C   UNL     1     -45.116  58.207   3.306  0.00  0.00    +0.167 A 
BRANCH  10  15
ATOM     15  N   UNL     1     -43.847  60.164   6.150  0.00  0.00    -0.341 N 
ATOM     16  H   UNL     1     -42.948  60.501   5.934  0.00  0.00    +0.000 HD
ATOM     17  H   UNL     1     -44.177  60.200   7.076  0.00  0.00    +0.000 HD
ENDBRANCH  10  15
ENDBRANCH   5   6
BRANCH   3  18
ATOM     18  O   UNL     1     -45.770  54.910  -0.864  0.00  0.00    -0.386 OA
ATOM     19  H   UNL     1     -46.184  54.041  -0.744  0.00  0.00    +0.000 HD
ENDBRANCH   3  18
BRANCH   4  20
ATOM     20  O   UNL     1     -44.666  57.293  -0.720  0.00  0.00    -0.385 OA
ATOM     21  H   UNL     1     -44.156  57.171  -1.536  0.00  0.00    +0.000 HD
ENDBRANCH   4  20
BRANCH   1  22
ATOM     22  C   UNL     1     -43.116  53.681   1.524  0.00  0.00    +0.088 C 
BRANCH  22  23
ATOM     23  O   UNL     1     -43.177  52.412   2.181  0.00  0.00    -0.284 OA
BRANCH  23  24
ATOM     24  P   UNL     1     -42.952  51.092   1.084  0.00  0.00    +0.483 P 
ATOM     25  O   UNL     1     -44.293  50.487   1.514  0.00  0.00    -0.227 OA
ATOM     26  O   UNL     1     -41.807  50.472   2.073  0.00  0.00    -0.302 OA
BRANCH  24  27
ATOM     27  O   UNL     1     -42.727  49.774  -0.012  0.00  0.00    -0.196 OA
BRANCH  27  28
ATOM     28  P   UNL     1     -41.413  50.258  -0.836  0.00  0.00    +0.423 P 
ATOM     29  O   UNL     1     -41.491  51.689  -1.232  0.00  0.00    -0.239 OA
ATOM     30  O   UNL     1     -41.629  49.349  -2.138  0.00  0.00    -0.312 OA
BRANCH  28  31
ATOM     31  N   UNL     1     -40.059  49.649  -0.298  0.00  0.00    -0.125 NA
ATOM     32  H   UNL     1     -40.247  49.241   0.619  0.00  0.00    +0.000 HD
BRANCH  31  33
ATOM     33  P   UNL     1     -38.841  50.650  -0.138  0.00  0.00    +0.412 P 
ATOM     34  O   UNL     1     -39.015  51.831   0.738  0.00  0.00    -0.240 OA
ATOM     35  O   UNL     1     -37.683  49.733   0.484  0.00  0.00    -0.312 OA
ATOM     36  O   UNL     1     -38.152  51.042  -1.517  0.00  0.00    -0.312 OA
ENDBRANCH  31  33
ENDBRANCH  28  31
ENDBRANCH  27  28
ENDBRANCH  24  27
ENDBRANCH  23  24
ENDBRANCH  22  23
ENDBRANCH   1  22
TORSDOF 11
ENDMDL
