MODEL 1
REMARK VINA RESULT:    -9.137      0.000      0.000
REMARK INTER + INTRA:         -11.881
REMARK INTER:                 -11.274
REMARK INTRA:                  -0.607
REMARK UNBOUND:                -0.607
REMARK  Name = 17a.sdf
REMARK  4 active torsions:
REMARK  status: ('A' for Active; 'I' for Inactive)
REMARK    1  A    between atoms: N_7  and  C_16
REMARK    2  A    between atoms: C_9  and  C_10
REMARK    3  A    between atoms: N_11  and  N_12
REMARK    4  A    between atoms: C_16  and  C_17
REMARK                            x       y       z     vdW  Elec       q    Type
REMARK                         _______ _______ _______ _____ _____    ______ ____
ROOT
ATOM      1  C   UNL     1      45.567  20.724  10.447  0.00  0.00    -0.061 A 
ATOM      2  C   UNL     1      46.337  21.591  11.213  0.00  0.00    -0.060 A 
ATOM      3  C   UNL     1      47.284  22.433  10.620  0.00  0.00    -0.038 A 
ATOM      4  C   UNL     1      47.443  22.381   9.224  0.00  0.00    +0.050 A 
ATOM      5  C   UNL     1      46.636  21.556   8.428  0.00  0.00    +0.009 A 
ATOM      6  C   UNL     1      45.697  20.708   9.057  0.00  0.00    -0.052 A 
ATOM      7  N   UNL     1      48.324  23.024   8.372  0.00  0.00    -0.342 N 
ATOM      8  C   UNL     1      48.031  22.697   7.072  0.00  0.00    +0.015 A 
ATOM      9  C   UNL     1      46.984  21.797   7.065  0.00  0.00    +0.020 A 
ENDROOT
BRANCH   9  10
ATOM     10  C   UNL     1      46.371  21.226   5.885  0.00  0.00    +0.055 C 
ATOM     11  N   UNL     1      45.113  21.429   5.668  0.00  0.00    -0.186 NA
BRANCH  11  12
ATOM     12  N   UNL     1      44.611  20.844   4.543  0.00  0.00    -0.191 N 
ATOM     13  C   UNL     1      43.369  20.261   4.525  0.00  0.00    +0.317 C 
ATOM     14  O   UNL     1      42.914  19.677   3.553  0.00  0.00    -0.251 OA
ATOM     15  N   UNL     1      42.682  20.387   5.690  0.00  0.00    -0.312 N 
ATOM     16  H   UNL     1      45.153  20.840   3.722  0.00  0.00    +0.000 HD
ATOM     17  H   UNL     1      43.086  20.865   6.450  0.00  0.00    +0.000 HD
ATOM     18  H   UNL     1      41.781  20.000   5.774  0.00  0.00    +0.000 HD
ENDBRANCH  11  12
ENDBRANCH   9  10
BRANCH   7  19
ATOM     19  C   UNL     1      49.484  23.831   8.755  0.00  0.00    +0.048 C 
BRANCH  19  20
ATOM     20  C   UNL     1      49.134  25.295   8.863  0.00  0.00    -0.028 A 
ATOM     21  C   UNL     1      50.129  26.272   8.714  0.00  0.00    -0.056 A 
ATOM     22  C   UNL     1      49.848  27.615   8.965  0.00  0.00    -0.047 A 
ATOM     23  C   UNL     1      48.563  27.992   9.347  0.00  0.00    +0.018 A 
ATOM     24  C   UNL     1      47.543  27.046   9.420  0.00  0.00    -0.047 A 
ATOM     25  C   UNL     1      47.827  25.701   9.176  0.00  0.00    -0.056 A 
ATOM     26 BR   UNL     1      48.215  29.789   9.814  0.00  0.00    -0.050 Br
ENDBRANCH  19  20
ENDBRANCH   7  19
TORSDOF 4
ENDMDL
