MODEL 1
REMARK VINA RESULT:    -8.569      0.000      0.000
REMARK INTER + INTRA:         -10.352
REMARK INTER:                 -10.072
REMARK INTRA:                  -0.280
REMARK UNBOUND:                -0.280
REMARK  Name = 1c.sdf
REMARK  3 active torsions:
REMARK  status: ('A' for Active; 'I' for Inactive)
REMARK    1  A    between atoms: N_7  and  C_12
REMARK    2  A    between atoms: C_9  and  C_10
REMARK    3  A    between atoms: C_12  and  C_13
REMARK                            x       y       z     vdW  Elec       q    Type
REMARK                         _______ _______ _______ _____ _____    ______ ____
ROOT
ATOM      1  C   UNL     1      45.780  20.086   7.279  0.00  0.00    -0.061 A 
ATOM      2  C   UNL     1      46.670  20.672   6.385  0.00  0.00    -0.060 A 
ATOM      3  C   UNL     1      47.593  21.641   6.805  0.00  0.00    -0.038 A 
ATOM      4  C   UNL     1      47.584  22.041   8.153  0.00  0.00    +0.050 A 
ATOM      5  C   UNL     1      46.736  21.415   9.082  0.00  0.00    +0.010 A 
ATOM      6  C   UNL     1      45.824  20.434   8.631  0.00  0.00    -0.052 A 
ATOM      7  N   UNL     1      48.280  23.026   8.844  0.00  0.00    -0.342 N 
ATOM      8  C   UNL     1      47.965  22.952  10.182  0.00  0.00    +0.016 A 
ATOM      9  C   UNL     1      47.020  21.963  10.361  0.00  0.00    +0.039 A 
ENDROOT
BRANCH   9  10
ATOM     10  C   UNL     1      46.432  21.588  11.636  0.00  0.00    +0.152 C 
ATOM     11  O   UNL     1      45.229  21.461  11.820  0.00  0.00    -0.296 OA
ENDBRANCH   9  10
BRANCH   7  12
ATOM     12  C   UNL     1      49.097  24.110   8.289  0.00  0.00    +0.048 C 
BRANCH  12  13
ATOM     13  C   UNL     1      48.811  25.438   8.948  0.00  0.00    -0.028 A 
ATOM     14  C   UNL     1      47.499  25.927   8.997  0.00  0.00    -0.055 A 
ATOM     15  C   UNL     1      47.247  27.239   9.401  0.00  0.00    -0.043 A 
ATOM     16  C   UNL     1      48.302  28.055   9.799  0.00  0.00    +0.041 A 
ATOM     17  C   UNL     1      49.597  27.548   9.869  0.00  0.00    -0.043 A 
ATOM     18  C   UNL     1      49.852  26.238   9.448  0.00  0.00    -0.055 A 
ATOM     19 CL   UNL     1      48.012  29.715  10.145  0.00  0.00    -0.084 Cl
ENDBRANCH  12  13
ENDBRANCH   7  12
TORSDOF 3
ENDMDL
