MODEL 1
REMARK VINA RESULT:    -8.191      0.000      0.000
REMARK INTER + INTRA:         -10.877
REMARK INTER:                 -10.106
REMARK INTRA:                  -0.771
REMARK UNBOUND:                -0.771
REMARK  Name = 17a.sdf
REMARK  4 active torsions:
REMARK  status: ('A' for Active; 'I' for Inactive)
REMARK    1  A    between atoms: N_7  and  C_16
REMARK    2  A    between atoms: C_9  and  C_10
REMARK    3  A    between atoms: N_11  and  N_12
REMARK    4  A    between atoms: C_16  and  C_17
REMARK                            x       y       z     vdW  Elec       q    Type
REMARK                         _______ _______ _______ _____ _____    ______ ____
ROOT
ATOM      1  C   UNL     1      35.644  51.234  75.881  0.00  0.00    -0.061 A 
ATOM      2  C   UNL     1      34.572  50.600  75.265  0.00  0.00    -0.060 A 
ATOM      3  C   UNL     1      34.775  49.667  74.242  0.00  0.00    -0.038 A 
ATOM      4  C   UNL     1      36.094  49.385  73.847  0.00  0.00    +0.050 A 
ATOM      5  C   UNL     1      37.190  49.970  74.494  0.00  0.00    +0.009 A 
ATOM      6  C   UNL     1      36.954  50.918  75.516  0.00  0.00    -0.052 A 
ATOM      7  N   UNL     1      36.602  48.580  72.842  0.00  0.00    -0.342 N 
ATOM      8  C   UNL     1      37.973  48.576  72.905  0.00  0.00    +0.015 A 
ATOM      9  C   UNL     1      38.375  49.418  73.923  0.00  0.00    +0.020 A 
ENDROOT
BRANCH   9  10
ATOM     10  C   UNL     1      39.745  49.670  74.317  0.00  0.00    +0.055 C 
ATOM     11  N   UNL     1      40.497  48.673  74.650  0.00  0.00    -0.186 NA
BRANCH  11  12
ATOM     12  N   UNL     1      41.768  48.998  75.024  0.00  0.00    -0.191 N 
ATOM     13  C   UNL     1      42.195  48.866  76.321  0.00  0.00    +0.317 C 
ATOM     14  O   UNL     1      43.307  49.203  76.700  0.00  0.00    -0.251 OA
ATOM     15  N   UNL     1      41.270  48.326  77.156  0.00  0.00    -0.312 N 
ATOM     16  H   UNL     1      42.396  49.336  74.345  0.00  0.00    +0.000 HD
ATOM     17  H   UNL     1      40.386  48.068  76.809  0.00  0.00    +0.000 HD
ATOM     18  H   UNL     1      41.485  48.192  78.107  0.00  0.00    +0.000 HD
ENDBRANCH  11  12
ENDBRANCH   9  10
BRANCH   7  19
ATOM     19  C   UNL     1      35.845  47.922  71.776  0.00  0.00    +0.048 C 
BRANCH  19  20
ATOM     20  C   UNL     1      35.354  48.911  70.748  0.00  0.00    -0.028 A 
ATOM     21  C   UNL     1      34.028  49.368  70.786  0.00  0.00    -0.056 A 
ATOM     22  C   UNL     1      33.521  50.159  69.754  0.00  0.00    -0.047 A 
ATOM     23  C   UNL     1      34.344  50.514  68.688  0.00  0.00    +0.018 A 
ATOM     24  C   UNL     1      35.684  50.136  68.675  0.00  0.00    -0.047 A 
ATOM     25  C   UNL     1      36.189  49.339  69.705  0.00  0.00    -0.056 A 
ATOM     26 BR   UNL     1      33.622  51.472  67.228  0.00  0.00    -0.050 Br
ENDBRANCH  19  20
ENDBRANCH   7  19
TORSDOF 4
ENDMDL
MODEL 2
REMARK VINA RESULT:    -7.963      5.252      7.773
REMARK INTER + INTRA:         -10.596
REMARK INTER:                  -9.900
REMARK INTRA:                  -0.696
REMARK UNBOUND:                -0.771
REMARK  Name = 17a.sdf
REMARK  4 active torsions:
REMARK  status: ('A' for Active; 'I' for Inactive)
REMARK    1  A    between atoms: N_7  and  C_16
REMARK    2  A    between atoms: C_9  and  C_10
REMARK    3  A    between atoms: N_11  and  N_12
REMARK    4  A    between atoms: C_16  and  C_17
REMARK                            x       y       z     vdW  Elec       q    Type
REMARK                         _______ _______ _______ _____ _____    ______ ____
ROOT
ATOM      1  C   UNL     1      33.441  52.699  75.982  0.00  0.00    -0.061 A 
ATOM      2  C   UNL     1      34.620  52.056  76.342  0.00  0.00    -0.060 A 
ATOM      3  C   UNL     1      35.078  50.938  75.635  0.00  0.00    -0.038 A 
ATOM      4  C   UNL     1      34.316  50.476  74.548  0.00  0.00    +0.050 A 
ATOM      5  C   UNL     1      33.156  51.145  74.134  0.00  0.00    +0.009 A 
ATOM      6  C   UNL     1      32.711  52.263  74.875  0.00  0.00    -0.052 A 
ATOM      7  N   UNL     1      34.467  49.380  73.717  0.00  0.00    -0.342 N 
ATOM      8  C   UNL     1      33.495  49.399  72.748  0.00  0.00    +0.015 A 
ATOM      9  C   UNL     1      32.669  50.484  72.967  0.00  0.00    +0.020 A 
ENDROOT
BRANCH   9  10
ATOM     10  C   UNL     1      31.535  50.859  72.149  0.00  0.00    +0.055 C 
ATOM     11  N   UNL     1      30.426  51.188  72.724  0.00  0.00    -0.186 NA
BRANCH  11  12
ATOM     12  N   UNL     1      29.403  51.513  71.881  0.00  0.00    -0.191 N 
ATOM     13  C   UNL     1      28.174  50.911  71.972  0.00  0.00    +0.317 C 
ATOM     14  O   UNL     1      27.257  51.135  71.197  0.00  0.00    -0.251 OA
ATOM     15  N   UNL     1      28.062  50.035  73.005  0.00  0.00    -0.312 N 
ATOM     16  H   UNL     1      29.552  52.198  71.190  0.00  0.00    +0.000 HD
ATOM     17  H   UNL     1      28.826  49.883  73.606  0.00  0.00    +0.000 HD
ATOM     18  H   UNL     1      27.217  49.553  73.151  0.00  0.00    +0.000 HD
ENDBRANCH  11  12
ENDBRANCH   9  10
BRANCH   7  19
ATOM     19  C   UNL     1      35.415  48.277  73.881  0.00  0.00    +0.048 C 
BRANCH  19  20
ATOM     20  C   UNL     1      36.763  48.607  73.290  0.00  0.00    -0.028 A 
ATOM     21  C   UNL     1      37.821  49.004  74.122  0.00  0.00    -0.056 A 
ATOM     22  C   UNL     1      39.020  49.459  73.574  0.00  0.00    -0.047 A 
ATOM     23  C   UNL     1      39.177  49.501  72.191  0.00  0.00    +0.018 A 
ATOM     24  C   UNL     1      38.168  49.036  71.353  0.00  0.00    -0.047 A 
ATOM     25  C   UNL     1      36.964  48.586  71.901  0.00  0.00    -0.056 A 
ATOM     26 BR   UNL     1      40.750  50.241  71.450  0.00  0.00    -0.050 Br
ENDBRANCH  19  20
ENDBRANCH   7  19
TORSDOF 4
ENDMDL
MODEL 3
REMARK VINA RESULT:    -7.276      6.430      9.772
REMARK INTER + INTRA:          -9.749
REMARK INTER:                  -9.073
REMARK INTRA:                  -0.676
REMARK UNBOUND:                -0.771
REMARK  Name = 17a.sdf
REMARK  4 active torsions:
REMARK  status: ('A' for Active; 'I' for Inactive)
REMARK    1  A    between atoms: N_7  and  C_16
REMARK    2  A    between atoms: C_9  and  C_10
REMARK    3  A    between atoms: N_11  and  N_12
REMARK    4  A    between atoms: C_16  and  C_17
REMARK                            x       y       z     vdW  Elec       q    Type
REMARK                         _______ _______ _______ _____ _____    ______ ____
ROOT
ATOM      1  C   UNL     1      35.246  50.869  67.569  0.00  0.00    -0.061 A 
ATOM      2  C   UNL     1      35.873  50.114  68.552  0.00  0.00    -0.060 A 
ATOM      3  C   UNL     1      35.140  49.518  69.584  0.00  0.00    -0.038 A 
ATOM      4  C   UNL     1      33.746  49.702  69.606  0.00  0.00    +0.050 A 
ATOM      5  C   UNL     1      33.088  50.411  68.592  0.00  0.00    +0.009 A 
ATOM      6  C   UNL     1      33.857  51.012  67.569  0.00  0.00    -0.052 A 
ATOM      7  N   UNL     1      32.779  49.307  70.514  0.00  0.00    -0.342 N 
ATOM      8  C   UNL     1      31.538  49.666  70.050  0.00  0.00    +0.015 A 
ATOM      9  C   UNL     1      31.688  50.344  68.856  0.00  0.00    +0.020 A 
ENDROOT
BRANCH   9  10
ATOM     10  C   UNL     1      30.611  50.870  68.044  0.00  0.00    +0.055 C 
ATOM     11  N   UNL     1      29.444  50.318  68.113  0.00  0.00    -0.186 NA
BRANCH  11  12
ATOM     12  N   UNL     1      28.490  50.865  67.304  0.00  0.00    -0.191 N 
ATOM     13  C   UNL     1      27.840  50.122  66.351  0.00  0.00    +0.317 C 
ATOM     14  O   UNL     1      27.025  50.594  65.573  0.00  0.00    -0.251 OA
ATOM     15  N   UNL     1      28.183  48.808  66.344  0.00  0.00    -0.312 N 
ATOM     16  H   UNL     1      28.262  51.817  67.408  0.00  0.00    +0.000 HD
ATOM     17  H   UNL     1      28.846  48.469  66.989  0.00  0.00    +0.000 HD
ATOM     18  H   UNL     1      27.770  48.195  65.695  0.00  0.00    +0.000 HD
ENDBRANCH  11  12
ENDBRANCH   9  10
BRANCH   7  19
ATOM     19  C   UNL     1      33.002  48.715  71.833  0.00  0.00    +0.048 C 
BRANCH  19  20
ATOM     20  C   UNL     1      33.311  49.764  72.871  0.00  0.00    -0.028 A 
ATOM     21  C   UNL     1      34.357  49.569  73.784  0.00  0.00    -0.056 A 
ATOM     22  C   UNL     1      34.551  50.457  74.842  0.00  0.00    -0.047 A 
ATOM     23  C   UNL     1      33.712  51.559  74.982  0.00  0.00    +0.018 A 
ATOM     24  C   UNL     1      32.719  51.813  74.038  0.00  0.00    -0.047 A 
ATOM     25  C   UNL     1      32.521  50.919  72.983  0.00  0.00    -0.056 A 
ATOM     26 BR   UNL     1      33.891  52.688  76.487  0.00  0.00    -0.050 Br
ENDBRANCH  19  20
ENDBRANCH   7  19
TORSDOF 4
ENDMDL
