REMARK VINA RESULT:    -7.963      5.252      7.773
REMARK INTER + INTRA:         -10.596
REMARK INTER:                  -9.900
REMARK INTRA:                  -0.696
REMARK UNBOUND:                -0.771
REMARK  Name = 17a.sdf
REMARK  4 active torsions:
REMARK  status: ('A' for Active; 'I' for Inactive)
REMARK    1  A    between atoms: N_7  and  C_16
REMARK    2  A    between atoms: C_9  and  C_10
REMARK    3  A    between atoms: N_11  and  N_12
REMARK    4  A    between atoms: C_16  and  C_17
REMARK                            x       y       z     vdW  Elec       q    Type
REMARK                         _______ _______ _______ _____ _____    ______ ____
ROOT
ATOM      1  C   UNL     1      33.441  52.699  75.982  0.00  0.00    -0.061 A 
ATOM      2  C   UNL     1      34.620  52.056  76.342  0.00  0.00    -0.060 A 
ATOM      3  C   UNL     1      35.078  50.938  75.635  0.00  0.00    -0.038 A 
ATOM      4  C   UNL     1      34.316  50.476  74.548  0.00  0.00    +0.050 A 
ATOM      5  C   UNL     1      33.156  51.145  74.134  0.00  0.00    +0.009 A 
ATOM      6  C   UNL     1      32.711  52.263  74.875  0.00  0.00    -0.052 A 
ATOM      7  N   UNL     1      34.467  49.380  73.717  0.00  0.00    -0.342 N 
ATOM      8  C   UNL     1      33.495  49.399  72.748  0.00  0.00    +0.015 A 
ATOM      9  C   UNL     1      32.669  50.484  72.967  0.00  0.00    +0.020 A 
ENDROOT
BRANCH   9  10
ATOM     10  C   UNL     1      31.535  50.859  72.149  0.00  0.00    +0.055 C 
ATOM     11  N   UNL     1      30.426  51.188  72.724  0.00  0.00    -0.186 NA
BRANCH  11  12
ATOM     12  N   UNL     1      29.403  51.513  71.881  0.00  0.00    -0.191 N 
ATOM     13  C   UNL     1      28.174  50.911  71.972  0.00  0.00    +0.317 C 
ATOM     14  O   UNL     1      27.257  51.135  71.197  0.00  0.00    -0.251 OA
ATOM     15  N   UNL     1      28.062  50.035  73.005  0.00  0.00    -0.312 N 
ATOM     16  H   UNL     1      29.552  52.198  71.190  0.00  0.00    +0.000 HD
ATOM     17  H   UNL     1      28.826  49.883  73.606  0.00  0.00    +0.000 HD
ATOM     18  H   UNL     1      27.217  49.553  73.151  0.00  0.00    +0.000 HD
ENDBRANCH  11  12
ENDBRANCH   9  10
BRANCH   7  19
ATOM     19  C   UNL     1      35.415  48.277  73.881  0.00  0.00    +0.048 C 
BRANCH  19  20
ATOM     20  C   UNL     1      36.763  48.607  73.290  0.00  0.00    -0.028 A 
ATOM     21  C   UNL     1      37.821  49.004  74.122  0.00  0.00    -0.056 A 
ATOM     22  C   UNL     1      39.020  49.459  73.574  0.00  0.00    -0.047 A 
ATOM     23  C   UNL     1      39.177  49.501  72.191  0.00  0.00    +0.018 A 
ATOM     24  C   UNL     1      38.168  49.036  71.353  0.00  0.00    -0.047 A 
ATOM     25  C   UNL     1      36.964  48.586  71.901  0.00  0.00    -0.056 A 
ATOM     26 BR   UNL     1      40.750  50.241  71.450  0.00  0.00    -0.050 Br
ENDBRANCH  19  20
ENDBRANCH   7  19
TORSDOF 4
