REMARK VINA RESULT:    -8.038      0.000      0.000
REMARK INTER + INTRA:         -10.785
REMARK INTER:                  -9.918
REMARK INTRA:                  -0.867
REMARK UNBOUND:                -0.867
REMARK  Name = 17c.sdf
REMARK  4 active torsions:
REMARK  status: ('A' for Active; 'I' for Inactive)
REMARK    1  A    between atoms: N_7  and  C_16
REMARK    2  A    between atoms: C_9  and  C_10
REMARK    3  A    between atoms: N_11  and  N_12
REMARK    4  A    between atoms: C_16  and  C_17
REMARK                            x       y       z     vdW  Elec       q    Type
REMARK                         _______ _______ _______ _____ _____    ______ ____
ROOT
ATOM      1  C   UNL     1      35.975  50.956  75.730  0.00  0.00    -0.061 A 
ATOM      2  C   UNL     1      34.839  50.386  75.167  0.00  0.00    -0.060 A 
ATOM      3  C   UNL     1      34.933  49.494  74.090  0.00  0.00    -0.038 A 
ATOM      4  C   UNL     1      36.205  49.208  73.563  0.00  0.00    +0.050 A 
ATOM      5  C   UNL     1      37.367  49.730  74.153  0.00  0.00    +0.009 A 
ATOM      6  C   UNL     1      37.241  50.615  75.249  0.00  0.00    -0.052 A 
ATOM      7  N   UNL     1      36.609  48.463  72.464  0.00  0.00    -0.342 N 
ATOM      8  C   UNL     1      37.983  48.434  72.416  0.00  0.00    +0.015 A 
ATOM      9  C   UNL     1      38.489  49.192  73.453  0.00  0.00    +0.020 A 
ENDROOT
BRANCH   9  10
ATOM     10  C   UNL     1      39.893  49.393  73.751  0.00  0.00    +0.055 C 
ATOM     11  N   UNL     1      40.427  48.735  74.729  0.00  0.00    -0.186 NA
BRANCH  11  12
ATOM     12  N   UNL     1      41.746  49.003  74.976  0.00  0.00    -0.191 N 
ATOM     13  C   UNL     1      42.258  48.992  76.256  0.00  0.00    +0.317 C 
ATOM     14  O   UNL     1      43.430  49.198  76.500  0.00  0.00    -0.251 OA
ATOM     15  N   UNL     1      41.332  48.744  77.208  0.00  0.00    -0.312 N 
ATOM     16  H   UNL     1      42.343  49.208  74.220  0.00  0.00    +0.000 HD
ATOM     17  H   UNL     1      40.395  48.583  76.953  0.00  0.00    +0.000 HD
ATOM     18  H   UNL     1      41.596  48.724  78.156  0.00  0.00    +0.000 HD
ENDBRANCH  11  12
ENDBRANCH   9  10
BRANCH   7  19
ATOM     19  C   UNL     1      35.764  47.908  71.400  0.00  0.00    +0.048 C 
BRANCH  19  20
ATOM     20  C   UNL     1      35.235  48.978  70.476  0.00  0.00    -0.028 A 
ATOM     21  C   UNL     1      33.894  49.377  70.557  0.00  0.00    -0.055 A 
ATOM     22  C   UNL     1      33.339  50.198  69.573  0.00  0.00    -0.043 A 
ATOM     23  C   UNL     1      34.134  50.657  68.526  0.00  0.00    +0.041 A 
ATOM     24  C   UNL     1      35.495  50.367  68.497  0.00  0.00    -0.043 A 
ATOM     25  C   UNL     1      36.047  49.531  69.472  0.00  0.00    -0.055 A 
ATOM     26 CL   UNL     1      33.416  51.536  67.233  0.00  0.00    -0.084 Cl
ENDBRANCH  19  20
ENDBRANCH   7  19
TORSDOF 4
