REMARK VINA RESULT:    -8.095      1.528      2.057
REMARK INTER + INTRA:         -12.138
REMARK INTER:                 -11.302
REMARK INTRA:                  -0.836
REMARK UNBOUND:                -1.204
REMARK  Name = 26a.sdf
REMARK  7 active torsions:
REMARK  status: ('A' for Active; 'I' for Inactive)
REMARK    1  A    between atoms: N_7  and  C_10
REMARK    2  A    between atoms: C_9  and  C_18
REMARK    3  A    between atoms: C_10  and  C_11
REMARK    4  A    between atoms: N_19  and  N_20
REMARK    5  A    between atoms: C_21  and  C_23
REMARK    6  A    between atoms: C_26  and  O_29
REMARK    7  A    between atoms: C_28  and  O_30
REMARK                            x       y       z     vdW  Elec       q    Type
REMARK                         _______ _______ _______ _____ _____    ______ ____
ROOT
ATOM      1  C   UNL     1      37.007  59.551  77.471  0.00  0.00    -0.061 A 
ATOM      2  C   UNL     1      37.676  60.279  78.448  0.00  0.00    -0.060 A 
ATOM      3  C   UNL     1      38.461  59.640  79.412  0.00  0.00    -0.038 A 
ATOM      4  C   UNL     1      38.567  58.239  79.366  0.00  0.00    +0.050 A 
ATOM      5  C   UNL     1      37.941  57.489  78.361  0.00  0.00    +0.009 A 
ATOM      6  C   UNL     1      37.139  58.160  77.412  0.00  0.00    -0.052 A 
ATOM      7  N   UNL     1      39.213  57.341  80.196  0.00  0.00    -0.342 N 
ATOM      8  C   UNL     1      39.081  56.071  79.696  0.00  0.00    +0.015 A 
ATOM      9  C   UNL     1      38.302  56.119  78.558  0.00  0.00    +0.020 A 
ENDROOT
BRANCH   9  10
ATOM     10  C   UNL     1      37.935  54.982  77.741  0.00  0.00    +0.055 C 
ATOM     11  N   UNL     1      36.715  54.552  77.754  0.00  0.00    -0.187 NA
BRANCH  11  12
ATOM     12  N   UNL     1      36.477  53.471  76.960  0.00  0.00    -0.203 N 
ATOM     13  C   UNL     1      35.188  53.092  76.640  0.00  0.00    +0.267 C 
ATOM     14  O   UNL     1      34.168  53.674  77.011  0.00  0.00    -0.268 OA
ATOM     15  H   UNL     1      37.236  52.950  76.609  0.00  0.00    +0.000 HD
BRANCH  13  16
ATOM     16  C   UNL     1      35.059  51.868  75.778  0.00  0.00    +0.080 A 
ATOM     17  C   UNL     1      33.933  51.782  74.942  0.00  0.00    -0.043 A 
ATOM     18  C   UNL     1      33.727  50.672  74.119  0.00  0.00    -0.019 A 
ATOM     19  C   UNL     1      34.657  49.639  74.129  0.00  0.00    +0.120 A 
ATOM     20  C   UNL     1      35.785  49.700  74.938  0.00  0.00    +0.022 A 
ATOM     21  C   UNL     1      35.986  50.812  75.763  0.00  0.00    +0.132 A 
BRANCH  19  22
ATOM     22  O   UNL     1      34.497  48.529  73.354  0.00  0.00    -0.507 OA
ATOM     23  H   UNL     1      35.019  48.415  72.585  0.00  0.00    +0.000 HD
ENDBRANCH  19  22
BRANCH  21  24
ATOM     24  O   UNL     1      37.106  50.840  76.557  0.00  0.00    -0.506 OA
ATOM     25  H   UNL     1      37.958  50.857  76.165  0.00  0.00    +0.000 HD
ENDBRANCH  21  24
ENDBRANCH  13  16
ENDBRANCH  11  12
ENDBRANCH   9  10
BRANCH   7  26
ATOM     26  C   UNL     1      39.844  57.643  81.478  0.00  0.00    +0.048 C 
BRANCH  26  27
ATOM     27  C   UNL     1      41.319  57.916  81.323  0.00  0.00    -0.028 A 
ATOM     28  C   UNL     1      42.054  58.473  82.380  0.00  0.00    -0.056 A 
ATOM     29  C   UNL     1      43.390  58.834  82.203  0.00  0.00    -0.047 A 
ATOM     30  C   UNL     1      44.003  58.629  80.970  0.00  0.00    +0.018 A 
ATOM     31  C   UNL     1      43.305  58.028  79.925  0.00  0.00    -0.047 A 
ATOM     32  C   UNL     1      41.967  57.671  80.103  0.00  0.00    -0.056 A 
ATOM     33 BR   UNL     1      45.783  59.205  80.703  0.00  0.00    -0.050 Br
ENDBRANCH  26  27
ENDBRANCH   7  26
TORSDOF 7
