MODEL 1
REMARK VINA RESULT:    -7.193      0.000      0.000
REMARK INTER + INTRA:          -9.019
REMARK INTER:                  -8.455
REMARK INTRA:                  -0.564
REMARK UNBOUND:                -0.564
REMARK  Name = 1c.sdf
REMARK  3 active torsions:
REMARK  status: ('A' for Active; 'I' for Inactive)
REMARK    1  A    between atoms: N_7  and  C_12
REMARK    2  A    between atoms: C_9  and  C_10
REMARK    3  A    between atoms: C_12  and  C_13
REMARK                            x       y       z     vdW  Elec       q    Type
REMARK                         _______ _______ _______ _____ _____    ______ ____
ROOT
ATOM      1  C   UNL     1     -17.701   9.709 -20.991  0.00  0.00    -0.061 A 
ATOM      2  C   UNL     1     -17.741   8.334 -20.779  0.00  0.00    -0.060 A 
ATOM      3  C   UNL     1     -16.984   7.453 -21.566  0.00  0.00    -0.038 A 
ATOM      4  C   UNL     1     -16.200   7.983 -22.605  0.00  0.00    +0.050 A 
ATOM      5  C   UNL     1     -16.099   9.372 -22.792  0.00  0.00    +0.010 A 
ATOM      6  C   UNL     1     -16.864  10.235 -21.977  0.00  0.00    -0.052 A 
ATOM      7  N   UNL     1     -15.438   7.386 -23.603  0.00  0.00    -0.342 N 
ATOM      8  C   UNL     1     -14.791   8.362 -24.326  0.00  0.00    +0.016 A 
ATOM      9  C   UNL     1     -15.173   9.597 -23.845  0.00  0.00    +0.039 A 
ENDROOT
BRANCH   9  10
ATOM     10  C   UNL     1     -14.706  10.875 -24.356  0.00  0.00    +0.152 C 
ATOM     11  O   UNL     1     -15.331  11.557 -25.157  0.00  0.00    -0.296 OA
ENDBRANCH   9  10
BRANCH   7  12
ATOM     12  C   UNL     1     -15.413   5.973 -23.993  0.00  0.00    +0.048 C 
BRANCH  12  13
ATOM     13  C   UNL     1     -14.036   5.366 -23.861  0.00  0.00    -0.028 A 
ATOM     14  C   UNL     1     -13.423   4.773 -24.972  0.00  0.00    -0.055 A 
ATOM     15  C   UNL     1     -12.257   4.021 -24.819  0.00  0.00    -0.043 A 
ATOM     16  C   UNL     1     -11.676   3.893 -23.560  0.00  0.00    +0.041 A 
ATOM     17  C   UNL     1     -12.206   4.574 -22.467  0.00  0.00    -0.043 A 
ATOM     18  C   UNL     1     -13.384   5.314 -22.618  0.00  0.00    -0.055 A 
ATOM     19 CL   UNL     1     -10.333   2.839 -23.344  0.00  0.00    -0.084 Cl
ENDBRANCH  12  13
ENDBRANCH   7  12
TORSDOF 3
ENDMDL
