MODEL 1
REMARK VINA RESULT:    -5.569      0.000      0.000
REMARK INTER + INTRA:          -5.569
REMARK INTER:                  -5.569
REMARK INTRA:                   0.000
REMARK UNBOUND:                 0.000
REMARK  Name = 0.sdf
REMARK  0 active torsions:
REMARK  status: ('A' for Active; 'I' for Inactive)
REMARK                            x       y       z     vdW  Elec       q    Type
REMARK                         _______ _______ _______ _____ _____    ______ ____
ROOT
ATOM      1  C   UNL     1       7.238  11.369  31.096  0.00  0.00    -0.061 A 
ATOM      2  C   UNL     1       6.107  11.028  30.357  0.00  0.00    -0.060 A 
ATOM      3  C   UNL     1       5.336   9.909  30.691  0.00  0.00    -0.038 A 
ATOM      4  C   UNL     1       5.747   9.146  31.791  0.00  0.00    +0.046 A 
ATOM      5  C   UNL     1       6.876   9.463  32.547  0.00  0.00    -0.000 A 
ATOM      6  C   UNL     1       7.632  10.597  32.195  0.00  0.00    -0.053 A 
ATOM      7  N   UNL     1       5.198   8.009  32.340  0.00  0.00    -0.361 N 
ATOM      8  C   UNL     1       5.944   7.592  33.410  0.00  0.00    +0.003 A 
ATOM      9  C   UNL     1       6.987   8.475  33.566  0.00  0.00    -0.037 A 
ATOM     10  H   UNL     1       4.386   7.562  32.010  0.00  0.00    +0.000 HD
ENDROOT
TORSDOF 0
ENDMDL
