MODEL 1
REMARK VINA RESULT:    -7.883      0.000      0.000
REMARK INTER + INTRA:          -9.301
REMARK INTER:                  -8.804
REMARK INTRA:                  -0.497
REMARK UNBOUND:                -0.497
REMARK  Name = 0b.sdf
REMARK  2 active torsions:
REMARK  status: ('A' for Active; 'I' for Inactive)
REMARK    1  A    between atoms: N_7  and  C_10
REMARK    2  A    between atoms: C_10  and  C_11
REMARK                            x       y       z     vdW  Elec       q    Type
REMARK                         _______ _______ _______ _____ _____    ______ ____
ROOT
ATOM      1  C   UNL     1       5.925   7.855  34.093  0.00  0.00    -0.061 A 
ATOM      2  C   UNL     1       4.979   8.066  33.096  0.00  0.00    -0.060 A 
ATOM      3  C   UNL     1       5.251   8.903  32.009  0.00  0.00    -0.038 A 
ATOM      4  C   UNL     1       6.511   9.522  31.945  0.00  0.00    +0.049 A 
ATOM      5  C   UNL     1       7.486   9.299  32.925  0.00  0.00    -0.000 A 
ATOM      6  C   UNL     1       7.183   8.462  34.018  0.00  0.00    -0.053 A 
ATOM      7  N   UNL     1       7.055  10.410  31.035  0.00  0.00    -0.342 N 
ATOM      8  C   UNL     1       8.351  10.708  31.388  0.00  0.00    +0.006 A 
ATOM      9  C   UNL     1       8.640  10.037  32.552  0.00  0.00    -0.036 A 
ENDROOT
BRANCH   7  10
ATOM     10  C   UNL     1       6.343  11.064  29.941  0.00  0.00    +0.048 C 
BRANCH  10  11
ATOM     11  C   UNL     1       5.497  12.216  30.413  0.00  0.00    -0.025 A 
ATOM     12  C   UNL     1       4.109  12.205  30.244  0.00  0.00    -0.039 A 
ATOM     13  C   UNL     1       3.373  13.291  30.689  0.00  0.00    +0.028 A 
ATOM     14  N   UNL     1       3.916  14.369  31.291  0.00  0.00    -0.263 NA
ATOM     15  C   UNL     1       5.257  14.366  31.444  0.00  0.00    +0.028 A 
ATOM     16  C   UNL     1       6.078  13.330  31.031  0.00  0.00    -0.039 A 
ENDBRANCH  10  11
ENDBRANCH   7  10
TORSDOF 2
ENDMDL
