MODEL 1
REMARK VINA RESULT:    -8.221      0.000      0.000
REMARK INTER + INTRA:          -9.670
REMARK INTER:                  -9.183
REMARK INTRA:                  -0.487
REMARK UNBOUND:                -0.487
REMARK  Name = 0c.sdf
REMARK  2 active torsions:
REMARK  status: ('A' for Active; 'I' for Inactive)
REMARK    1  A    between atoms: N_7  and  C_10
REMARK    2  A    between atoms: C_10  and  C_11
REMARK                            x       y       z     vdW  Elec       q    Type
REMARK                         _______ _______ _______ _____ _____    ______ ____
ROOT
ATOM      1  C   UNL     1       3.445  14.600  30.709  0.00  0.00    -0.061 A 
ATOM      2  C   UNL     1       3.366  13.292  30.244  0.00  0.00    -0.060 A 
ATOM      3  C   UNL     1       4.478  12.444  30.280  0.00  0.00    -0.038 A 
ATOM      4  C   UNL     1       5.679  12.944  30.810  0.00  0.00    +0.049 A 
ATOM      5  C   UNL     1       5.769  14.249  31.308  0.00  0.00    -0.000 A 
ATOM      6  C   UNL     1       4.640  15.086  31.252  0.00  0.00    -0.053 A 
ATOM      7  N   UNL     1       6.931  12.373  30.957  0.00  0.00    -0.342 N 
ATOM      8  C   UNL     1       7.782  13.258  31.573  0.00  0.00    +0.006 A 
ATOM      9  C   UNL     1       7.090  14.426  31.798  0.00  0.00    -0.036 A 
ENDROOT
BRANCH   7  10
ATOM     10  C   UNL     1       7.342  11.059  30.469  0.00  0.00    +0.048 C 
BRANCH  10  11
ATOM     11  C   UNL     1       6.900   9.959  31.402  0.00  0.00    -0.028 A 
ATOM     12  C   UNL     1       5.692   9.281  31.183  0.00  0.00    -0.055 A 
ATOM     13  C   UNL     1       5.224   8.348  32.109  0.00  0.00    -0.043 A 
ATOM     14  C   UNL     1       5.969   8.076  33.253  0.00  0.00    +0.041 A 
ATOM     15  C   UNL     1       7.195   8.702  33.462  0.00  0.00    -0.043 A 
ATOM     16  C   UNL     1       7.662   9.639  32.537  0.00  0.00    -0.055 A 
ATOM     17 CL   UNL     1       5.358   6.977  34.429  0.00  0.00    -0.084 Cl
ENDBRANCH  10  11
ENDBRANCH   7  10
TORSDOF 2
ENDMDL
