MODEL 1
REMARK VINA RESULT:    -8.779      0.000      0.000
REMARK INTER + INTRA:         -12.478
REMARK INTER:                 -11.858
REMARK INTRA:                  -0.620
REMARK UNBOUND:                -0.620
REMARK  Name = 10a.sdf
REMARK  7 active torsions:
REMARK  status: ('A' for Active; 'I' for Inactive)
REMARK    1  A    between atoms: N_7  and  C_22
REMARK    2  A    between atoms: C_9  and  C_10
REMARK    3  A    between atoms: C_11  and  C_12
REMARK    4  A    between atoms: C_12  and  C_13
REMARK    5  A    between atoms: C_17  and  O_20
REMARK    6  A    between atoms: O_20  and  C_21
REMARK    7  A    between atoms: C_22  and  C_23
REMARK                            x       y       z     vdW  Elec       q    Type
REMARK                         _______ _______ _______ _____ _____    ______ ____
ROOT
ATOM      1  C   UNL     1       3.093  14.359  30.011  0.00  0.00    -0.061 A 
ATOM      2  C   UNL     1       3.251  12.983  29.890  0.00  0.00    -0.060 A 
ATOM      3  C   UNL     1       4.487  12.376  30.136  0.00  0.00    -0.038 A 
ATOM      4  C   UNL     1       5.567  13.190  30.516  0.00  0.00    +0.050 A 
ATOM      5  C   UNL     1       5.422  14.573  30.682  0.00  0.00    +0.007 A 
ATOM      6  C   UNL     1       4.166  15.160  30.411  0.00  0.00    -0.052 A 
ATOM      7  N   UNL     1       6.892  12.889  30.780  0.00  0.00    -0.342 N 
ATOM      8  C   UNL     1       7.559  14.026  31.176  0.00  0.00    +0.013 A 
ATOM      9  C   UNL     1       6.679  15.086  31.127  0.00  0.00    +0.000 A 
ENDROOT
BRANCH   9  10
ATOM     10  C   UNL     1       6.961  16.445  31.480  0.00  0.00    -0.049 C 
ATOM     11  C   UNL     1       7.919  17.203  30.931  0.00  0.00    -0.014 C 
BRANCH  11  12
ATOM     12  C   UNL     1       8.177  18.584  31.429  0.00  0.00    +0.186 C 
ATOM     13  O   UNL     1       7.316  19.445  31.484  0.00  0.00    -0.287 OA
BRANCH  12  14
ATOM     14  C   UNL     1       9.589  18.875  31.838  0.00  0.00    +0.022 A 
ATOM     15  C   UNL     1       9.853  19.226  33.161  0.00  0.00    -0.047 A 
ATOM     16  C   UNL     1      11.155  19.566  33.542  0.00  0.00    -0.019 A 
ATOM     17  C   UNL     1      12.201  19.538  32.618  0.00  0.00    +0.120 A 
ATOM     18  C   UNL     1      11.945  19.147  31.300  0.00  0.00    -0.019 A 
ATOM     19  C   UNL     1      10.643  18.815  30.914  0.00  0.00    -0.047 A 
BRANCH  17  20
ATOM     20  O   UNL     1      13.411  19.951  33.094  0.00  0.00    -0.495 OA
ATOM     21  C   UNL     1      13.915  19.272  34.239  0.00  0.00    +0.079 C 
ENDBRANCH  17  20
ENDBRANCH  12  14
ENDBRANCH  11  12
ENDBRANCH   9  10
BRANCH   7  22
ATOM     22  C   UNL     1       7.541  11.596  30.570  0.00  0.00    +0.048 C 
BRANCH  22  23
ATOM     23  C   UNL     1       7.007  10.539  31.504  0.00  0.00    -0.028 A 
ATOM     24  C   UNL     1       7.611  10.317  32.750  0.00  0.00    -0.056 A 
ATOM     25  C   UNL     1       7.186   9.272  33.572  0.00  0.00    -0.047 A 
ATOM     26  C   UNL     1       6.143   8.449  33.157  0.00  0.00    +0.018 A 
ATOM     27  C   UNL     1       5.495   8.685  31.947  0.00  0.00    -0.047 A 
ATOM     28  C   UNL     1       5.924   9.729  31.124  0.00  0.00    -0.056 A 
ATOM     29 BR   UNL     1       5.624   6.981  34.229  0.00  0.00    -0.050 Br
ENDBRANCH  22  23
ENDBRANCH   7  22
TORSDOF 6
ENDMDL
