MODEL 1
REMARK VINA RESULT:    -6.635      0.000      0.000
REMARK INTER + INTRA:          -8.095
REMARK INTER:                  -7.798
REMARK INTRA:                  -0.297
REMARK UNBOUND:                -0.297
REMARK  Name = 14.sdf
REMARK  4 active torsions:
REMARK  status: ('A' for Active; 'I' for Inactive)
REMARK    1  A    between atoms: C_9  and  C_10
REMARK    2  A    between atoms: C_10  and  O_11
REMARK    3  A    between atoms: O_11  and  C_12
REMARK    4  A    between atoms: C_12  and  C_13
REMARK                            x       y       z     vdW  Elec       q    Type
REMARK                         _______ _______ _______ _____ _____    ______ ____
ROOT
ATOM      1  C   UNL     1       6.890   8.365  34.084  0.00  0.00    -0.061 A 
ATOM      2  C   UNL     1       5.680   7.740  33.801  0.00  0.00    -0.060 A 
ATOM      3  C   UNL     1       4.927   8.110  32.684  0.00  0.00    -0.038 A 
ATOM      4  C   UNL     1       5.426   9.136  31.870  0.00  0.00    +0.047 A 
ATOM      5  C   UNL     1       6.633   9.788  32.127  0.00  0.00    +0.006 A 
ATOM      6  C   UNL     1       7.377   9.383  33.256  0.00  0.00    -0.052 A 
ATOM      7  N   UNL     1       4.895   9.699  30.733  0.00  0.00    -0.360 N 
ATOM      8  C   UNL     1       5.716  10.690  30.267  0.00  0.00    +0.009 A 
ATOM      9  C   UNL     1       6.816  10.780  31.105  0.00  0.00    +0.015 A 
ATOM     10  H   UNL     1       4.047   9.426  30.313  0.00  0.00    +0.000 HD
ENDROOT
BRANCH   9  11
ATOM     11  C   UNL     1       7.966  11.737  30.963  0.00  0.00    +0.119 C 
BRANCH  11  12
ATOM     12  O   UNL     1       7.836  12.879  31.865  0.00  0.00    -0.460 OA
BRANCH  12  13
ATOM     13  C   UNL     1       7.494  14.091  31.329  0.00  0.00    +0.304 C 
ATOM     14  C   UNL     1       6.032  14.449  31.473  0.00  0.00    +0.033 C 
ATOM     15  O   UNL     1       8.264  14.847  30.769  0.00  0.00    -0.251 OA
ENDBRANCH  12  13
ENDBRANCH  11  12
ENDBRANCH   9  11
TORSDOF 3
ENDMDL
