MODEL 1
REMARK VINA RESULT:    -7.706      0.000      0.000
REMARK INTER + INTRA:         -10.128
REMARK INTER:                  -9.508
REMARK INTRA:                  -0.621
REMARK UNBOUND:                -0.621
REMARK  Name = 16.sdf
REMARK  4 active torsions:
REMARK  status: ('A' for Active; 'I' for Inactive)
REMARK    1  A    between atoms: C_9  and  C_10
REMARK    2  A    between atoms: C_10  and  O_11
REMARK    3  A    between atoms: O_11  and  C_12
REMARK    4  A    between atoms: C_12  and  C_13
REMARK                            x       y       z     vdW  Elec       q    Type
REMARK                         _______ _______ _______ _____ _____    ______ ____
ROOT
ATOM      1  C   UNL     1       6.880   8.392  34.094  0.00  0.00    -0.061 A 
ATOM      2  C   UNL     1       5.689   7.743  33.779  0.00  0.00    -0.060 A 
ATOM      3  C   UNL     1       4.947   8.111  32.653  0.00  0.00    -0.038 A 
ATOM      4  C   UNL     1       5.446   9.150  31.859  0.00  0.00    +0.047 A 
ATOM      5  C   UNL     1       6.638   9.819  32.141  0.00  0.00    +0.005 A 
ATOM      6  C   UNL     1       7.365   9.427  33.287  0.00  0.00    -0.052 A 
ATOM      7  N   UNL     1       4.930   9.709  30.714  0.00  0.00    -0.360 N 
ATOM      8  C   UNL     1       5.749  10.708  30.267  0.00  0.00    +0.008 A 
ATOM      9  C   UNL     1       6.834  10.805  31.117  0.00  0.00    +0.003 A 
ATOM     10  H   UNL     1       4.092   9.431  30.279  0.00  0.00    +0.000 HD
ENDROOT
BRANCH   9  11
ATOM     11  C   UNL     1       7.977  11.763  30.994  0.00  0.00    +0.075 C 
BRANCH  11  12
ATOM     12  O   UNL     1       7.775  12.914  31.818  0.00  0.00    -0.371 OA
BRANCH  12  13
ATOM     13  C   UNL     1       7.891  14.129  31.083  0.00  0.00    +0.073 C 
BRANCH  13  14
ATOM     14  C   UNL     1       6.518  14.654  30.727  0.00  0.00    -0.022 A 
ATOM     15  C   UNL     1       6.352  15.492  29.614  0.00  0.00    -0.055 A 
ATOM     16  C   UNL     1       5.085  15.964  29.260  0.00  0.00    -0.043 A 
ATOM     17  C   UNL     1       3.972  15.591  30.010  0.00  0.00    +0.041 A 
ATOM     18  C   UNL     1       4.114  14.745  31.106  0.00  0.00    -0.043 A 
ATOM     19  C   UNL     1       5.381  14.274  31.458  0.00  0.00    -0.055 A 
ATOM     20 CL   UNL     1       2.412  16.177  29.577  0.00  0.00    -0.084 Cl
ENDBRANCH  13  14
ENDBRANCH  12  13
ENDBRANCH  11  12
ENDBRANCH   9  11
TORSDOF 4
ENDMDL
