MODEL 1
REMARK VINA RESULT:    -8.891      0.000      0.000
REMARK INTER + INTRA:         -12.954
REMARK INTER:                 -12.009
REMARK INTRA:                  -0.945
REMARK UNBOUND:                -0.945
REMARK  Name = 16c.sdf
REMARK  6 active torsions:
REMARK  status: ('A' for Active; 'I' for Inactive)
REMARK    1  A    between atoms: N_7  and  C_11
REMARK    2  A    between atoms: C_9  and  C_10
REMARK    3  A    between atoms: C_10  and  O_19
REMARK    4  A    between atoms: C_11  and  C_12
REMARK    5  A    between atoms: O_19  and  C_20
REMARK    6  A    between atoms: C_20  and  C_21
REMARK                            x       y       z     vdW  Elec       q    Type
REMARK                         _______ _______ _______ _____ _____    ______ ____
ROOT
ATOM      1  C   UNL     1       6.532  16.498  31.060  0.00  0.00    -0.061 A 
ATOM      2  C   UNL     1       7.783  15.887  31.074  0.00  0.00    -0.060 A 
ATOM      3  C   UNL     1       7.912  14.501  30.920  0.00  0.00    -0.038 A 
ATOM      4  C   UNL     1       6.745  13.738  30.743  0.00  0.00    +0.050 A 
ATOM      5  C   UNL     1       5.483  14.338  30.685  0.00  0.00    +0.005 A 
ATOM      6  C   UNL     1       5.380  15.735  30.853  0.00  0.00    -0.052 A 
ATOM      7  N   UNL     1       6.546  12.378  30.598  0.00  0.00    -0.342 N 
ATOM      8  C   UNL     1       5.214  12.120  30.378  0.00  0.00    +0.011 A 
ATOM      9  C   UNL     1       4.526  13.317  30.407  0.00  0.00    +0.003 A 
ENDROOT
BRANCH   9  10
ATOM     10  C   UNL     1       3.071  13.523  30.137  0.00  0.00    +0.075 C 
BRANCH  10  11
ATOM     11  O   UNL     1       2.641  12.922  28.910  0.00  0.00    -0.371 OA
BRANCH  11  12
ATOM     12  C   UNL     1       2.036  13.859  28.025  0.00  0.00    +0.073 C 
BRANCH  12  13
ATOM     13  C   UNL     1       3.127  14.664  27.369  0.00  0.00    -0.022 A 
ATOM     14  C   UNL     1       4.170  14.020  26.687  0.00  0.00    -0.055 A 
ATOM     15  C   UNL     1       5.184  14.764  26.083  0.00  0.00    -0.043 A 
ATOM     16  C   UNL     1       5.166  16.154  26.170  0.00  0.00    +0.041 A 
ATOM     17  C   UNL     1       4.140  16.806  26.856  0.00  0.00    -0.043 A 
ATOM     18  C   UNL     1       3.130  16.062  27.461  0.00  0.00    -0.055 A 
ATOM     19 CL   UNL     1       6.416  17.074  25.426  0.00  0.00    -0.084 Cl
ENDBRANCH  12  13
ENDBRANCH  11  12
ENDBRANCH  10  11
ENDBRANCH   9  10
BRANCH   7  20
ATOM     20  C   UNL     1       7.561  11.334  30.735  0.00  0.00    +0.048 C 
BRANCH  20  21
ATOM     21  C   UNL     1       7.078  10.194  31.598  0.00  0.00    -0.028 A 
ATOM     22  C   UNL     1       5.999   9.398  31.184  0.00  0.00    -0.055 A 
ATOM     23  C   UNL     1       5.488   8.403  32.020  0.00  0.00    -0.043 A 
ATOM     24  C   UNL     1       6.061   8.188  33.270  0.00  0.00    +0.041 A 
ATOM     25  C   UNL     1       7.161   8.937  33.679  0.00  0.00    -0.043 A 
ATOM     26  C   UNL     1       7.670   9.936  32.845  0.00  0.00    -0.055 A 
ATOM     27 CL   UNL     1       5.392   7.003  34.324  0.00  0.00    -0.084 Cl
ENDBRANCH  20  21
ENDBRANCH   7  20
TORSDOF 6
ENDMDL
