MODEL 1
REMARK VINA RESULT:    -7.245      0.000      0.000
REMARK INTER + INTRA:         -10.863
REMARK INTER:                  -9.786
REMARK INTRA:                  -1.077
REMARK UNBOUND:                -1.077
REMARK  Name = 17h.sdf
REMARK  8 active torsions:
REMARK  status: ('A' for Active; 'I' for Inactive)
REMARK    1  A    between atoms: N_7  and  C_16
REMARK    2  A    between atoms: C_9  and  C_10
REMARK    3  A    between atoms: N_11  and  N_12
REMARK    4  A    between atoms: C_16  and  C_17
REMARK    5  A    between atoms: C_20  and  O_23
REMARK    6  A    between atoms: C_21  and  O_24
REMARK    7  A    between atoms: O_23  and  C_25
REMARK    8  A    between atoms: O_24  and  C_26
REMARK                            x       y       z     vdW  Elec       q    Type
REMARK                         _______ _______ _______ _____ _____    ______ ____
ROOT
ATOM      1  C   UNL     1       8.077  13.928  31.469  0.00  0.00    -0.061 A 
ATOM      2  C   UNL     1       7.250  15.038  31.331  0.00  0.00    -0.060 A 
ATOM      3  C   UNL     1       5.898  14.892  30.996  0.00  0.00    -0.038 A 
ATOM      4  C   UNL     1       5.399  13.593  30.801  0.00  0.00    +0.050 A 
ATOM      5  C   UNL     1       6.207  12.459  30.964  0.00  0.00    +0.009 A 
ATOM      6  C   UNL     1       7.568  12.639  31.297  0.00  0.00    -0.052 A 
ATOM      7  N   UNL     1       4.149  13.146  30.419  0.00  0.00    -0.342 N 
ATOM      8  C   UNL     1       4.142  11.775  30.369  0.00  0.00    +0.015 A 
ATOM      9  C   UNL     1       5.392  11.310  30.727  0.00  0.00    +0.020 A 
ENDROOT
BRANCH   9  10
ATOM     10  C   UNL     1       5.772   9.917  30.819  0.00  0.00    +0.055 C 
ATOM     11  N   UNL     1       5.360   9.226  31.834  0.00  0.00    -0.186 NA
BRANCH  11  12
ATOM     12  N   UNL     1       5.782   7.923  31.862  0.00  0.00    -0.191 N 
ATOM     13  C   UNL     1       6.547   7.442  32.898  0.00  0.00    +0.317 C 
ATOM     14  O   UNL     1       6.993   6.305  32.926  0.00  0.00    -0.251 OA
ATOM     15  N   UNL     1       6.753   8.336  33.896  0.00  0.00    -0.312 N 
ATOM     16  H   UNL     1       5.535   7.319  31.126  0.00  0.00    +0.000 HD
ATOM     17  H   UNL     1       6.373   9.242  33.831  0.00  0.00    +0.000 HD
ATOM     18  H   UNL     1       7.281   8.080  34.685  0.00  0.00    +0.000 HD
ENDBRANCH  11  12
ENDBRANCH   9  10
BRANCH   7  19
ATOM     19  C   UNL     1       3.058  13.973  29.910  0.00  0.00    +0.048 C 
BRANCH  19  20
ATOM     20  C   UNL     1       3.336  14.652  28.588  0.00  0.00    -0.024 A 
ATOM     21  C   UNL     1       3.840  13.949  27.488  0.00  0.00    -0.053 A 
ATOM     22  C   UNL     1       4.281  14.626  26.345  0.00  0.00    -0.016 A 
ATOM     23  C   UNL     1       4.240  16.021  26.289  0.00  0.00    +0.162 A 
ATOM     24  C   UNL     1       3.689  16.741  27.366  0.00  0.00    +0.162 A 
ATOM     25  C   UNL     1       3.241  16.052  28.501  0.00  0.00    -0.011 A 
BRANCH  23  26
ATOM     26  O   UNL     1       4.720  16.768  25.241  0.00  0.00    -0.491 OA
ATOM     27  C   UNL     1       5.963  16.380  24.671  0.00  0.00    +0.079 C 
ENDBRANCH  23  26
BRANCH  24  28
ATOM     28  O   UNL     1       3.672  18.107  27.233  0.00  0.00    -0.491 OA
ATOM     29  C   UNL     1       4.580  18.862  28.023  0.00  0.00    +0.079 C 
ENDBRANCH  24  28
ENDBRANCH  19  20
ENDBRANCH   7  19
TORSDOF 6
ENDMDL
