MODEL 1
REMARK VINA RESULT:    -8.043      0.000      0.000
REMARK INTER + INTRA:         -11.182
REMARK INTER:                 -10.395
REMARK INTRA:                  -0.788
REMARK UNBOUND:                -0.788
REMARK  Name = 17i.sdf
REMARK  6 active torsions:
REMARK  status: ('A' for Active; 'I' for Inactive)
REMARK    1  A    between atoms: N_7  and  C_16
REMARK    2  A    between atoms: C_9  and  C_10
REMARK    3  A    between atoms: N_11  and  N_12
REMARK    4  A    between atoms: C_16  and  C_17
REMARK    5  A    between atoms: C_19  and  O_23
REMARK    6  A    between atoms: O_23  and  C_24
REMARK                            x       y       z     vdW  Elec       q    Type
REMARK                         _______ _______ _______ _____ _____    ______ ____
ROOT
ATOM      1  C   UNL     1       3.283  15.012  29.981  0.00  0.00    -0.061 A 
ATOM      2  C   UNL     1       3.090  13.637  29.884  0.00  0.00    -0.060 A 
ATOM      3  C   UNL     1       4.130  12.744  30.146  0.00  0.00    -0.038 A 
ATOM      4  C   UNL     1       5.382  13.269  30.509  0.00  0.00    +0.050 A 
ATOM      5  C   UNL     1       5.589  14.646  30.658  0.00  0.00    +0.009 A 
ATOM      6  C   UNL     1       4.521  15.526  30.379  0.00  0.00    -0.052 A 
ATOM      7  N   UNL     1       6.593  12.649  30.754  0.00  0.00    -0.342 N 
ATOM      8  C   UNL     1       7.530  13.589  31.103  0.00  0.00    +0.015 A 
ATOM      9  C   UNL     1       6.937  14.836  31.092  0.00  0.00    +0.020 A 
ENDROOT
BRANCH   9  10
ATOM     10  C   UNL     1       7.588  16.080  31.441  0.00  0.00    +0.055 C 
ATOM     11  N   UNL     1       8.093  16.805  30.496  0.00  0.00    -0.186 NA
BRANCH  11  12
ATOM     12  N   UNL     1       8.720  17.952  30.910  0.00  0.00    -0.191 N 
ATOM     13  C   UNL     1       9.144  18.897  30.010  0.00  0.00    +0.317 C 
ATOM     14  O   UNL     1       9.766  19.903  30.338  0.00  0.00    -0.251 OA
ATOM     15  N   UNL     1       8.812  18.630  28.725  0.00  0.00    -0.312 N 
ATOM     16  H   UNL     1       8.869  18.100  31.872  0.00  0.00    +0.000 HD
ATOM     17  H   UNL     1       8.312  17.810  28.506  0.00  0.00    +0.000 HD
ATOM     18  H   UNL     1       9.072  19.254  28.010  0.00  0.00    +0.000 HD
ENDBRANCH  11  12
ENDBRANCH   9  10
BRANCH   7  19
ATOM     19  C   UNL     1       6.917  11.256  30.456  0.00  0.00    +0.048 C 
BRANCH  19  20
ATOM     20  C   UNL     1       6.336  10.247  31.417  0.00  0.00    -0.024 A 
ATOM     21  C   UNL     1       6.945   9.984  32.658  0.00  0.00    -0.015 A 
ATOM     22  C   UNL     1       6.539   8.901  33.444  0.00  0.00    +0.120 A 
ATOM     23  C   UNL     1       5.479   8.104  33.012  0.00  0.00    -0.020 A 
ATOM     24  C   UNL     1       4.836   8.374  31.805  0.00  0.00    -0.058 A 
ATOM     25  C   UNL     1       5.268   9.433  31.007  0.00  0.00    -0.057 A 
BRANCH  22  26
ATOM     26  O   UNL     1       7.116   8.505  34.619  0.00  0.00    -0.495 OA
ATOM     27  C   UNL     1       6.478   8.916  35.822  0.00  0.00    +0.079 C 
ENDBRANCH  22  26
ENDBRANCH  19  20
ENDBRANCH   7  19
TORSDOF 5
ENDMDL
