MODEL 1
REMARK VINA RESULT:    -8.543      0.000      0.000
REMARK INTER + INTRA:         -11.899
REMARK INTER:                 -11.040
REMARK INTRA:                  -0.860
REMARK UNBOUND:                -0.860
REMARK  Name = 18c.sdf
REMARK  5 active torsions:
REMARK  status: ('A' for Active; 'I' for Inactive)
REMARK    1  A    between atoms: N_7  and  C_12
REMARK    2  A    between atoms: C_9  and  C_10
REMARK    3  A    between atoms: N_11  and  N_19
REMARK    4  A    between atoms: C_12  and  C_13
REMARK    5  A    between atoms: C_20  and  C_22
REMARK                            x       y       z     vdW  Elec       q    Type
REMARK                         _______ _______ _______ _____ _____    ______ ____
ROOT
ATOM      1  C   UNL     1       0.700  15.580  26.674  0.00  0.00    -0.061 A 
ATOM      2  C   UNL     1       1.055  16.727  25.974  0.00  0.00    -0.060 A 
ATOM      3  C   UNL     1       2.385  17.159  25.927  0.00  0.00    -0.038 A 
ATOM      4  C   UNL     1       3.359  16.403  26.603  0.00  0.00    +0.050 A 
ATOM      5  C   UNL     1       3.030  15.216  27.273  0.00  0.00    +0.009 A 
ATOM      6  C   UNL     1       1.676  14.813  27.316  0.00  0.00    -0.052 A 
ATOM      7  N   UNL     1       4.716  16.602  26.784  0.00  0.00    -0.342 N 
ATOM      8  C   UNL     1       5.254  15.539  27.465  0.00  0.00    +0.015 A 
ATOM      9  C   UNL     1       4.242  14.655  27.781  0.00  0.00    +0.020 A 
ENDROOT
BRANCH   9  10
ATOM     10  C   UNL     1       4.396  13.402  28.491  0.00  0.00    +0.055 C 
ATOM     11  N   UNL     1       5.299  13.289  29.408  0.00  0.00    -0.187 NA
BRANCH  11  12
ATOM     12  N   UNL     1       5.386  12.067  30.018  0.00  0.00    -0.203 N 
ATOM     13  C   UNL     1       6.404  11.826  30.929  0.00  0.00    +0.263 C 
ATOM     14  O   UNL     1       7.254  12.648  31.271  0.00  0.00    -0.268 OA
ATOM     15  H   UNL     1       4.730  11.362  29.810  0.00  0.00    +0.000 HD
BRANCH  13  16
ATOM     16  C   UNL     1       6.418  10.470  31.547  0.00  0.00    +0.038 A 
ATOM     17  C   UNL     1       5.458   9.495  31.243  0.00  0.00    -0.050 A 
ATOM     18  C   UNL     1       5.521   8.236  31.850  0.00  0.00    -0.061 A 
ATOM     19  C   UNL     1       6.544   7.945  32.753  0.00  0.00    -0.062 A 
ATOM     20  C   UNL     1       7.513   8.905  33.045  0.00  0.00    -0.061 A 
ATOM     21  C   UNL     1       7.454  10.161  32.440  0.00  0.00    -0.050 A 
ENDBRANCH  13  16
ENDBRANCH  11  12
ENDBRANCH   9  10
BRANCH   7  22
ATOM     22  C   UNL     1       5.474  17.802  26.428  0.00  0.00    +0.048 C 
BRANCH  22  23
ATOM     23  C   UNL     1       6.349  17.573  25.220  0.00  0.00    -0.028 A 
ATOM     24  C   UNL     1       7.718  17.875  25.266  0.00  0.00    -0.055 A 
ATOM     25  C   UNL     1       8.502  17.788  24.114  0.00  0.00    -0.043 A 
ATOM     26  C   UNL     1       7.925  17.384  22.913  0.00  0.00    +0.041 A 
ATOM     27  C   UNL     1       6.581  17.020  22.864  0.00  0.00    -0.043 A 
ATOM     28  C   UNL     1       5.795  17.112  24.015  0.00  0.00    -0.055 A 
ATOM     29 CL   UNL     1       8.872  17.364  21.477  0.00  0.00    -0.084 Cl
ENDBRANCH  22  23
ENDBRANCH   7  22
TORSDOF 5
ENDMDL
