MODEL 1
REMARK VINA RESULT:    -7.697      0.000      0.000
REMARK INTER + INTRA:          -9.485
REMARK INTER:                  -9.047
REMARK INTRA:                  -0.437
REMARK UNBOUND:                -0.437
REMARK  Name = 1b.sdf
REMARK  3 active torsions:
REMARK  status: ('A' for Active; 'I' for Inactive)
REMARK    1  A    between atoms: N_7  and  C_12
REMARK    2  A    between atoms: C_9  and  C_10
REMARK    3  A    between atoms: C_12  and  C_13
REMARK                            x       y       z     vdW  Elec       q    Type
REMARK                         _______ _______ _______ _____ _____    ______ ____
ROOT
ATOM      1  C   UNL     1       5.632   7.792  33.937  0.00  0.00    -0.061 A 
ATOM      2  C   UNL     1       4.576   8.077  33.080  0.00  0.00    -0.060 A 
ATOM      3  C   UNL     1       4.749   8.924  31.981  0.00  0.00    -0.038 A 
ATOM      4  C   UNL     1       6.021   9.480  31.760  0.00  0.00    +0.050 A 
ATOM      5  C   UNL     1       7.109   9.172  32.588  0.00  0.00    +0.010 A 
ATOM      6  C   UNL     1       6.901   8.325  33.696  0.00  0.00    -0.052 A 
ATOM      7  N   UNL     1       6.479  10.373  30.807  0.00  0.00    -0.342 N 
ATOM      8  C   UNL     1       7.825  10.577  30.971  0.00  0.00    +0.016 A 
ATOM      9  C   UNL     1       8.253   9.851  32.064  0.00  0.00    +0.039 A 
ENDROOT
BRANCH   9  10
ATOM     10  C   UNL     1       9.612   9.817  32.564  0.00  0.00    +0.152 C 
ATOM     11  O   UNL     1      10.282   8.791  32.659  0.00  0.00    -0.296 OA
ENDBRANCH   9  10
BRANCH   7  12
ATOM     12  C   UNL     1       5.660  11.113  29.849  0.00  0.00    +0.048 C 
BRANCH  12  13
ATOM     13  C   UNL     1       5.141  12.402  30.423  0.00  0.00    -0.025 A 
ATOM     14  C   UNL     1       3.787  12.735  30.326  0.00  0.00    -0.039 A 
ATOM     15  C   UNL     1       3.361  13.954  30.830  0.00  0.00    +0.028 A 
ATOM     16  N   UNL     1       4.177  14.845  31.430  0.00  0.00    -0.263 NA
ATOM     17  C   UNL     1       5.479  14.503  31.527  0.00  0.00    +0.028 A 
ATOM     18  C   UNL     1       6.001  13.311  31.050  0.00  0.00    -0.039 A 
ENDBRANCH  12  13
ENDBRANCH   7  12
TORSDOF 3
ENDMDL
