MODEL 1
REMARK VINA RESULT:    -8.047      0.000      0.000
REMARK INTER + INTRA:          -8.936
REMARK INTER:                  -8.988
REMARK INTRA:                   0.053
REMARK UNBOUND:                 0.053
REMARK  Name = 1d.sdf
REMARK  2 active torsions:
REMARK  status: ('A' for Active; 'I' for Inactive)
REMARK    1  A    between atoms: C_9  and  C_10
REMARK    2  A    between atoms: C_12  and  C_13
REMARK                            x       y       z     vdW  Elec       q    Type
REMARK                         _______ _______ _______ _____ _____    ______ ____
ROOT
ATOM      1  C   UNL     1       3.219  15.012  29.980  0.00  0.00    -0.061 A 
ATOM      2  C   UNL     1       2.870  13.679  29.806  0.00  0.00    -0.060 A 
ATOM      3  C   UNL     1       3.791  12.657  30.056  0.00  0.00    -0.037 A 
ATOM      4  C   UNL     1       5.085  13.006  30.489  0.00  0.00    +0.057 A 
ATOM      5  C   UNL     1       5.453  14.345  30.675  0.00  0.00    +0.011 A 
ATOM      6  C   UNL     1       4.502  15.358  30.411  0.00  0.00    -0.052 A 
ATOM      7  N   UNL     1       6.169  12.208  30.864  0.00  0.00    -0.282 N 
ATOM      8  C   UNL     1       7.211  13.051  31.206  0.00  0.00    +0.024 A 
ATOM      9  C   UNL     1       6.802  14.364  31.126  0.00  0.00    +0.040 A 
ATOM     10  C   UNL     1       6.217  10.792  30.915  0.00  0.00    +0.263 C 
ATOM     11  O   UNL     1       5.423  10.153  30.231  0.00  0.00    -0.267 OA
ENDROOT
BRANCH  10  12
ATOM     12  C   UNL     1       7.185  10.051  31.766  0.00  0.00    +0.040 A 
ATOM     13  C   UNL     1       8.562  10.252  31.599  0.00  0.00    -0.049 A 
ATOM     14  C   UNL     1       9.471   9.514  32.354  0.00  0.00    -0.061 A 
ATOM     15  C   UNL     1       9.008   8.601  33.300  0.00  0.00    -0.062 A 
ATOM     16  C   UNL     1       7.637   8.443  33.511  0.00  0.00    -0.061 A 
ATOM     17  C   UNL     1       6.720   9.171  32.750  0.00  0.00    -0.049 A 
ENDBRANCH  10  12
BRANCH   9  18
ATOM     18  C   UNL     1       7.632  15.510  31.451  0.00  0.00    +0.152 C 
ATOM     19  O   UNL     1       8.014  16.329  30.619  0.00  0.00    -0.296 OA
ENDBRANCH   9  18
TORSDOF 2
ENDMDL
