MODEL 1
REMARK VINA RESULT:    -8.622      0.000      0.000
REMARK INTER + INTRA:         -12.516
REMARK INTER:                 -11.646
REMARK INTRA:                  -0.870
REMARK UNBOUND:                -0.870
REMARK  Name = 22a.sdf
REMARK  7 active torsions:
REMARK  status: ('A' for Active; 'I' for Inactive)
REMARK    1  A    between atoms: N_7  and  C_12
REMARK    2  A    between atoms: C_9  and  C_10
REMARK    3  A    between atoms: N_11  and  N_19
REMARK    4  A    between atoms: C_12  and  C_13
REMARK    5  A    between atoms: C_20  and  C_22
REMARK    6  A    between atoms: C_25  and  O_29
REMARK    7  A    between atoms: O_29  and  C_30
REMARK                            x       y       z     vdW  Elec       q    Type
REMARK                         _______ _______ _______ _____ _____    ______ ____
ROOT
ATOM      1  C   UNL     1       0.205  15.765  26.546  0.00  0.00    -0.061 A 
ATOM      2  C   UNL     1       0.459  16.919  25.814  0.00  0.00    -0.060 A 
ATOM      3  C   UNL     1       1.764  17.388  25.642  0.00  0.00    -0.038 A 
ATOM      4  C   UNL     1       2.819  16.660  26.218  0.00  0.00    +0.050 A 
ATOM      5  C   UNL     1       2.591  15.468  26.921  0.00  0.00    +0.009 A 
ATOM      6  C   UNL     1       1.260  15.029  27.095  0.00  0.00    -0.052 A 
ATOM      7  N   UNL     1       4.181  16.895  26.259  0.00  0.00    -0.342 N 
ATOM      8  C   UNL     1       4.813  15.854  26.892  0.00  0.00    +0.015 A 
ATOM      9  C   UNL     1       3.863  14.942  27.310  0.00  0.00    +0.020 A 
ENDROOT
BRANCH   9  10
ATOM     10  C   UNL     1       4.123  13.700  28.004  0.00  0.00    +0.055 C 
ATOM     11  N   UNL     1       4.946  13.682  29.006  0.00  0.00    -0.187 NA
BRANCH  11  12
ATOM     12  N   UNL     1       5.143  12.465  29.602  0.00  0.00    -0.203 N 
ATOM     13  C   UNL     1       6.125  12.337  30.574  0.00  0.00    +0.263 C 
ATOM     14  O   UNL     1       6.847  13.244  30.974  0.00  0.00    -0.268 OA
ATOM     15  H   UNL     1       4.594  11.689  29.345  0.00  0.00    +0.000 HD
BRANCH  13  16
ATOM     16  C   UNL     1       6.259  10.984  31.193  0.00  0.00    +0.039 A 
ATOM     17  C   UNL     1       5.346   9.952  30.955  0.00  0.00    -0.046 A 
ATOM     18  C   UNL     1       5.521   8.712  31.578  0.00  0.00    -0.019 A 
ATOM     19  C   UNL     1       6.614   8.479  32.419  0.00  0.00    +0.120 A 
ATOM     20  C   UNL     1       7.536   9.501  32.641  0.00  0.00    -0.019 A 
ATOM     21  C   UNL     1       7.360  10.747  32.027  0.00  0.00    -0.046 A 
BRANCH  19  22
ATOM     22  O   UNL     1       6.643   7.242  33.001  0.00  0.00    -0.495 OA
ATOM     23  C   UNL     1       5.711   7.014  34.051  0.00  0.00    +0.079 C 
ENDBRANCH  19  22
ENDBRANCH  13  16
ENDBRANCH  11  12
ENDBRANCH   9  10
BRANCH   7  24
ATOM     24  C   UNL     1       4.864  18.106  25.803  0.00  0.00    +0.048 C 
BRANCH  24  25
ATOM     25  C   UNL     1       6.018  17.785  24.887  0.00  0.00    -0.028 A 
ATOM     26  C   UNL     1       7.339  18.027  25.291  0.00  0.00    -0.056 A 
ATOM     27  C   UNL     1       8.399  17.844  24.401  0.00  0.00    -0.047 A 
ATOM     28  C   UNL     1       8.145  17.402  23.105  0.00  0.00    +0.018 A 
ATOM     29  C   UNL     1       6.845  17.100  22.705  0.00  0.00    -0.047 A 
ATOM     30  C   UNL     1       5.785  17.290  23.594  0.00  0.00    -0.056 A 
ATOM     31 BR   UNL     1       9.568  17.247  21.872  0.00  0.00    -0.050 Br
ENDBRANCH  24  25
ENDBRANCH   7  24
TORSDOF 6
ENDMDL
