MODEL 1
REMARK VINA RESULT:    -8.560      0.000      0.000
REMARK INTER + INTRA:         -12.944
REMARK INTER:                 -12.062
REMARK INTRA:                  -0.882
REMARK UNBOUND:                -0.882
REMARK  Name = 23c.sdf
REMARK  9 active torsions:
REMARK  status: ('A' for Active; 'I' for Inactive)
REMARK    1  A    between atoms: N_7  and  C_12
REMARK    2  A    between atoms: C_9  and  C_10
REMARK    3  A    between atoms: N_11  and  N_19
REMARK    4  A    between atoms: C_12  and  C_13
REMARK    5  A    between atoms: C_20  and  C_22
REMARK    6  A    between atoms: C_24  and  O_30
REMARK    7  A    between atoms: C_25  and  O_29
REMARK    8  A    between atoms: O_29  and  C_32
REMARK    9  A    between atoms: O_30  and  C_31
REMARK                            x       y       z     vdW  Elec       q    Type
REMARK                         _______ _______ _______ _____ _____    ______ ____
ROOT
ATOM      1  C   UNL     1       0.171  15.935  26.448  0.00  0.00    -0.061 A 
ATOM      2  C   UNL     1       0.394  17.073  25.683  0.00  0.00    -0.060 A 
ATOM      3  C   UNL     1       1.694  17.518  25.420  0.00  0.00    -0.038 A 
ATOM      4  C   UNL     1       2.771  16.782  25.942  0.00  0.00    +0.050 A 
ATOM      5  C   UNL     1       2.570  15.608  26.680  0.00  0.00    +0.009 A 
ATOM      6  C   UNL     1       1.246  15.192  26.944  0.00  0.00    -0.052 A 
ATOM      7  N   UNL     1       4.137  16.995  25.889  0.00  0.00    -0.342 N 
ATOM      8  C   UNL     1       4.792  15.957  26.505  0.00  0.00    +0.015 A 
ATOM      9  C   UNL     1       3.857  15.071  27.001  0.00  0.00    +0.020 A 
ENDROOT
BRANCH   9  10
ATOM     10  C   UNL     1       4.143  13.841  27.708  0.00  0.00    +0.055 C 
ATOM     11  N   UNL     1       4.559  13.884  28.932  0.00  0.00    -0.187 NA
BRANCH  11  12
ATOM     12  N   UNL     1       4.810  12.674  29.522  0.00  0.00    -0.203 N 
ATOM     13  C   UNL     1       5.879  12.551  30.400  0.00  0.00    +0.263 C 
ATOM     14  O   UNL     1       6.636  13.462  30.725  0.00  0.00    -0.268 OA
ATOM     15  H   UNL     1       4.238  11.897  29.325  0.00  0.00    +0.000 HD
BRANCH  13  16
ATOM     16  C   UNL     1       6.063  11.207  31.018  0.00  0.00    +0.042 A 
ATOM     17  C   UNL     1       7.186  10.890  31.792  0.00  0.00    -0.004 A 
ATOM     18  C   UNL     1       7.331   9.602  32.325  0.00  0.00    +0.162 A 
ATOM     19  C   UNL     1       6.333   8.630  32.102  0.00  0.00    +0.162 A 
ATOM     20  C   UNL     1       5.194   8.969  31.364  0.00  0.00    -0.016 A 
ATOM     21  C   UNL     1       5.062  10.250  30.824  0.00  0.00    -0.046 A 
BRANCH  19  22
ATOM     22  O   UNL     1       6.565   7.390  32.644  0.00  0.00    -0.491 OA
ATOM     23  C   UNL     1       5.906   7.065  33.859  0.00  0.00    +0.079 C 
ENDBRANCH  19  22
BRANCH  18  24
ATOM     24  O   UNL     1       8.410   9.192  33.072  0.00  0.00    -0.491 OA
ATOM     25  C   UNL     1       9.700   9.280  32.486  0.00  0.00    +0.079 C 
ENDBRANCH  18  24
ENDBRANCH  13  16
ENDBRANCH  11  12
ENDBRANCH   9  10
BRANCH   7  26
ATOM     26  C   UNL     1       4.808  18.181  25.360  0.00  0.00    +0.048 C 
BRANCH  26  27
ATOM     27  C   UNL     1       6.071  17.820  24.617  0.00  0.00    -0.028 A 
ATOM     28  C   UNL     1       7.329  18.096  25.172  0.00  0.00    -0.055 A 
ATOM     29  C   UNL     1       8.494  17.866  24.438  0.00  0.00    -0.043 A 
ATOM     30  C   UNL     1       8.410  17.346  23.149  0.00  0.00    +0.041 A 
ATOM     31  C   UNL     1       7.171  17.017  22.602  0.00  0.00    -0.043 A 
ATOM     32  C   UNL     1       6.005  17.252  23.335  0.00  0.00    -0.055 A 
ATOM     33 CL   UNL     1       9.841  17.128  22.220  0.00  0.00    -0.084 Cl
ENDBRANCH  26  27
ENDBRANCH   7  26
TORSDOF 7
ENDMDL
