MODEL 1
REMARK VINA RESULT:    -8.765      0.000      0.000
REMARK INTER + INTRA:         -12.476
REMARK INTER:                 -11.583
REMARK INTRA:                  -0.893
REMARK UNBOUND:                -0.893
REMARK  Name = 24c.sdf
REMARK  6 active torsions:
REMARK  status: ('A' for Active; 'I' for Inactive)
REMARK    1  A    between atoms: N_7  and  C_10
REMARK    2  A    between atoms: C_9  and  C_18
REMARK    3  A    between atoms: C_10  and  C_11
REMARK    4  A    between atoms: N_19  and  N_20
REMARK    5  A    between atoms: C_21  and  C_23
REMARK    6  A    between atoms: C_26  and  O_29
REMARK                            x       y       z     vdW  Elec       q    Type
REMARK                         _______ _______ _______ _____ _____    ______ ____
ROOT
ATOM      1  C   UNL     1       0.822  15.742  26.623  0.00  0.00    -0.061 A 
ATOM      2  C   UNL     1       1.172  16.894  25.929  0.00  0.00    -0.060 A 
ATOM      3  C   UNL     1       2.503  17.319  25.867  0.00  0.00    -0.038 A 
ATOM      4  C   UNL     1       3.482  16.548  26.519  0.00  0.00    +0.050 A 
ATOM      5  C   UNL     1       3.159  15.359  27.183  0.00  0.00    +0.009 A 
ATOM      6  C   UNL     1       1.804  14.965  27.244  0.00  0.00    -0.052 A 
ATOM      7  N   UNL     1       4.845  16.735  26.671  0.00  0.00    -0.342 N 
ATOM      8  C   UNL     1       5.388  15.666  27.337  0.00  0.00    +0.015 A 
ATOM      9  C   UNL     1       4.376  14.784  27.665  0.00  0.00    +0.020 A 
ENDROOT
BRANCH   9  10
ATOM     10  C   UNL     1       4.536  13.521  28.360  0.00  0.00    +0.055 C 
ATOM     11  N   UNL     1       5.261  13.462  29.428  0.00  0.00    -0.187 NA
BRANCH  11  12
ATOM     12  N   UNL     1       5.360  12.231  30.015  0.00  0.00    -0.203 N 
ATOM     13  C   UNL     1       6.444  11.948  30.831  0.00  0.00    +0.263 C 
ATOM     14  O   UNL     1       7.354  12.725  31.099  0.00  0.00    -0.268 OA
ATOM     15  H   UNL     1       4.667  11.549  29.857  0.00  0.00    +0.000 HD
BRANCH  13  16
ATOM     16  C   UNL     1       6.453  10.587  31.446  0.00  0.00    +0.039 A 
ATOM     17  C   UNL     1       7.432  10.184  32.371  0.00  0.00    -0.046 A 
ATOM     18  C   UNL     1       7.401   8.891  32.906  0.00  0.00    -0.019 A 
ATOM     19  C   UNL     1       6.389   8.014  32.527  0.00  0.00    +0.117 A 
ATOM     20  C   UNL     1       5.399   8.410  31.637  0.00  0.00    -0.019 A 
ATOM     21  C   UNL     1       5.428   9.698  31.099  0.00  0.00    -0.046 A 
BRANCH  19  22
ATOM     22  O   UNL     1       6.329   6.743  33.016  0.00  0.00    -0.507 OA
ATOM     23  H   UNL     1       6.935   6.095  32.713  0.00  0.00    +0.000 HD
ENDBRANCH  19  22
ENDBRANCH  13  16
ENDBRANCH  11  12
ENDBRANCH   9  10
BRANCH   7  24
ATOM     24  C   UNL     1       5.604  17.925  26.290  0.00  0.00    +0.048 C 
BRANCH  24  25
ATOM     25  C   UNL     1       6.490  17.664  25.097  0.00  0.00    -0.028 A 
ATOM     26  C   UNL     1       7.866  17.925  25.160  0.00  0.00    -0.055 A 
ATOM     27  C   UNL     1       8.668  17.784  24.025  0.00  0.00    -0.043 A 
ATOM     28  C   UNL     1       8.100  17.367  22.824  0.00  0.00    +0.041 A 
ATOM     29  C   UNL     1       6.745  17.054  22.756  0.00  0.00    -0.043 A 
ATOM     30  C   UNL     1       5.942  17.201  23.890  0.00  0.00    -0.055 A 
ATOM     31 CL   UNL     1       9.076  17.259  21.411  0.00  0.00    -0.084 Cl
ENDBRANCH  24  25
ENDBRANCH   7  24
TORSDOF 6
ENDMDL
