MODEL 1
REMARK VINA RESULT:    -7.723      0.000      0.000
REMARK INTER + INTRA:         -10.946
REMARK INTER:                 -10.206
REMARK INTRA:                  -0.741
REMARK UNBOUND:                -0.741
REMARK  Name = 3a.sdf
REMARK  6 active torsions:
REMARK  status: ('A' for Active; 'I' for Inactive)
REMARK    1  A    between atoms: N_7  and  C_12
REMARK    2  A    between atoms: C_9  and  C_10
REMARK    3  A    between atoms: C_10  and  CA_11
REMARK    4  A    between atoms: CA_11  and  C_20
REMARK    5  A    between atoms: CA_11  and  N_23
REMARK    6  A    between atoms: C_12  and  C_13
REMARK                            x       y       z     vdW  Elec       q    Type
REMARK                         _______ _______ _______ _____ _____    ______ ____
ROOT
ATOM      1  C   UNL     1       7.413  15.334  31.443  0.00  0.00    -0.061 A 
ATOM      2  C   UNL     1       6.166  15.909  31.229  0.00  0.00    -0.060 A 
ATOM      3  C   UNL     1       5.074  15.129  30.836  0.00  0.00    -0.038 A 
ATOM      4  C   UNL     1       5.260  13.746  30.682  0.00  0.00    +0.050 A 
ATOM      5  C   UNL     1       6.499  13.140  30.928  0.00  0.00    +0.003 A 
ATOM      6  C   UNL     1       7.590  13.955  31.298  0.00  0.00    -0.052 A 
ATOM      7  N   UNL     1       4.408  12.745  30.259  0.00  0.00    -0.342 N 
ATOM      8  C   UNL     1       5.018  11.523  30.404  0.00  0.00    +0.009 A 
ATOM      9  C   UNL     1       6.347  11.731  30.711  0.00  0.00    -0.020 A 
ENDROOT
BRANCH   9  10
ATOM     10  C   UNL     1       7.433  10.702  30.799  0.00  0.00    -0.000 C 
BRANCH  10  11
ATOM     11  CA  UNL     1       7.970  10.413  32.213  0.00  0.00    +0.107 C 
BRANCH  11  12
ATOM     12  N   UNL     1       9.457  10.472  32.190  0.00  0.00    -0.318 N 
ATOM     13  H1  UNL     1       9.763  11.415  32.428  0.00  0.00    +0.000 HD
ATOM     14  H2  UNL     1       9.792  10.230  31.258  0.00  0.00    +0.000 HD
ATOM     15  H3  UNL     1       9.834   9.811  32.870  0.00  0.00    +0.000 HD
ENDBRANCH  11  12
BRANCH  11  16
ATOM     16  C   UNL     1       7.460   9.061  32.771  0.00  0.00    +0.322 C 
ATOM     17  O   UNL     1       6.390   8.568  32.102  0.00  0.00    -0.480 OA
ATOM     18  OXT UNL     1       7.967   8.436  33.696  0.00  0.00    -0.249 OA
ENDBRANCH  11  16
ENDBRANCH  10  11
ENDBRANCH   9  10
BRANCH   7  19
ATOM     19  C   UNL     1       3.120  12.922  29.593  0.00  0.00    +0.048 C 
BRANCH  19  20
ATOM     20  C   UNL     1       3.206  13.924  28.471  0.00  0.00    -0.028 A 
ATOM     21  C   UNL     1       4.162  13.768  27.456  0.00  0.00    -0.056 A 
ATOM     22  C   UNL     1       4.334  14.755  26.487  0.00  0.00    -0.047 A 
ATOM     23  C   UNL     1       3.538  15.898  26.517  0.00  0.00    +0.018 A 
ATOM     24  C   UNL     1       2.542  16.040  27.480  0.00  0.00    -0.047 A 
ATOM     25  C   UNL     1       2.375  15.054  28.455  0.00  0.00    -0.056 A 
ATOM     26 BR   UNL     1       3.835  17.276  25.261  0.00  0.00    -0.050 Br
ENDBRANCH  19  20
ENDBRANCH   7  19
TORSDOF 6
ENDMDL
