MODEL 1
REMARK VINA RESULT:    -7.966      0.000      0.000
REMARK INTER + INTRA:         -10.070
REMARK INTER:                  -9.596
REMARK INTRA:                  -0.474
REMARK UNBOUND:                -0.474
REMARK  Name = 4b.sdf
REMARK  4 active torsions:
REMARK  status: ('A' for Active; 'I' for Inactive)
REMARK    1  A    between atoms: N_7  and  C_11
REMARK    2  A    between atoms: C_9  and  C_10
REMARK    3  A    between atoms: C_10  and  O_18
REMARK    4  A    between atoms: C_11  and  C_12
REMARK                            x       y       z     vdW  Elec       q    Type
REMARK                         _______ _______ _______ _____ _____    ______ ____
ROOT
ATOM      1  C   UNL     1       5.826   7.891  34.062  0.00  0.00    -0.061 A 
ATOM      2  C   UNL     1       4.807   8.044  33.127  0.00  0.00    -0.060 A 
ATOM      3  C   UNL     1       4.982   8.835  31.984  0.00  0.00    -0.038 A 
ATOM      4  C   UNL     1       6.209   9.499  31.809  0.00  0.00    +0.050 A 
ATOM      5  C   UNL     1       7.268   9.297  32.705  0.00  0.00    +0.005 A 
ATOM      6  C   UNL     1       7.064   8.493  33.849  0.00  0.00    -0.052 A 
ATOM      7  N   UNL     1       6.655  10.414  30.868  0.00  0.00    -0.342 N 
ATOM      8  C   UNL     1       7.979  10.700  31.104  0.00  0.00    +0.011 A 
ATOM      9  C   UNL     1       8.404  10.013  32.214  0.00  0.00    +0.003 A 
ENDROOT
BRANCH   9  10
ATOM     10  C   UNL     1       9.759  10.037  32.835  0.00  0.00    +0.071 C 
BRANCH  10  11
ATOM     11  O   UNL     1      10.469   8.824  32.610  0.00  0.00    -0.390 OA
ATOM     12  H   UNL     1       9.871   8.071  32.738  0.00  0.00    +0.000 HD
ENDBRANCH  10  11
ENDBRANCH   9  10
BRANCH   7  13
ATOM     13  C   UNL     1       5.848  11.127  29.872  0.00  0.00    +0.048 C 
BRANCH  13  14
ATOM     14  C   UNL     1       5.208  12.368  30.442  0.00  0.00    -0.025 A 
ATOM     15  C   UNL     1       3.835  12.584  30.304  0.00  0.00    -0.039 A 
ATOM     16  C   UNL     1       3.301  13.793  30.724  0.00  0.00    +0.028 A 
ATOM     17  N   UNL     1       4.025  14.771  31.305  0.00  0.00    -0.263 NA
ATOM     18  C   UNL     1       5.341  14.528  31.480  0.00  0.00    +0.028 A 
ATOM     19  C   UNL     1       5.969  13.357  31.077  0.00  0.00    -0.039 A 
ENDBRANCH  13  14
ENDBRANCH   7  13
TORSDOF 4
ENDMDL
