MODEL 1
REMARK VINA RESULT:    -6.830      0.000      0.000
REMARK INTER + INTRA:          -8.264
REMARK INTER:                  -8.028
REMARK INTRA:                  -0.236
REMARK UNBOUND:                -0.236
REMARK  Name = 5.sdf
REMARK  4 active torsions:
REMARK  status: ('A' for Active; 'I' for Inactive)
REMARK    1  A    between atoms: C_9  and  C_10
REMARK    2  A    between atoms: C_11  and  C_12
REMARK    3  A    between atoms: C_12  and  O_13
REMARK    4  A    between atoms: O_13  and  C_15
REMARK                            x       y       z     vdW  Elec       q    Type
REMARK                         _______ _______ _______ _____ _____    ______ ____
ROOT
ATOM      1  C   UNL     1       5.329   7.906  33.011  0.00  0.00    -0.061 A 
ATOM      2  C   UNL     1       6.450   7.743  33.822  0.00  0.00    -0.060 A 
ATOM      3  C   UNL     1       7.560   8.572  33.670  0.00  0.00    -0.038 A 
ATOM      4  C   UNL     1       7.506   9.559  32.679  0.00  0.00    +0.047 A 
ATOM      5  C   UNL     1       6.401   9.759  31.842  0.00  0.00    +0.007 A 
ATOM      6  C   UNL     1       5.292   8.904  32.022  0.00  0.00    -0.052 A 
ATOM      7  N   UNL     1       8.451  10.493  32.333  0.00  0.00    -0.360 N 
ATOM      8  C   UNL     1       7.996  11.270  31.304  0.00  0.00    +0.010 A 
ATOM      9  C   UNL     1       6.723  10.853  30.962  0.00  0.00    +0.000 A 
ATOM     10  H   UNL     1       9.331  10.590  32.763  0.00  0.00    +0.000 HD
ENDROOT
BRANCH   9  11
ATOM     11  C   UNL     1       5.922  11.441  29.913  0.00  0.00    -0.046 C 
ATOM     12  C   UNL     1       4.877  12.265  30.141  0.00  0.00    +0.023 C 
BRANCH  12  13
ATOM     13  C   UNL     1       3.967  12.943  29.198  0.00  0.00    +0.332 C 
ATOM     14  O   UNL     1       2.763  12.988  29.418  0.00  0.00    -0.246 OA
BRANCH  13  15
ATOM     15  O   UNL     1       4.583  13.477  28.117  0.00  0.00    -0.465 OA
ATOM     16  C   UNL     1       3.689  13.672  27.012  0.00  0.00    +0.082 C 
ENDBRANCH  13  15
ENDBRANCH  12  13
ENDBRANCH   9  11
TORSDOF 3
ENDMDL
