MODEL 1
REMARK VINA RESULT:    -6.790      0.000      0.000
REMARK INTER + INTRA:          -8.246
REMARK INTER:                  -7.981
REMARK INTRA:                  -0.265
REMARK UNBOUND:                -0.265
REMARK  Name = 7.sdf
REMARK  4 active torsions:
REMARK  status: ('A' for Active; 'I' for Inactive)
REMARK    1  A    between atoms: C_9  and  C_10
REMARK    2  A    between atoms: C_10  and  C_11
REMARK    3  A    between atoms: C_11  and  O_13
REMARK    4  A    between atoms: O_13  and  C_14
REMARK                            x       y       z     vdW  Elec       q    Type
REMARK                         _______ _______ _______ _____ _____    ______ ____
ROOT
ATOM      1  C   UNL     1       8.347  12.205  32.040  0.00  0.00    -0.061 A 
ATOM      2  C   UNL     1       7.561  13.107  31.326  0.00  0.00    -0.060 A 
ATOM      3  C   UNL     1       6.358  12.703  30.742  0.00  0.00    -0.038 A 
ATOM      4  C   UNL     1       5.969  11.368  30.909  0.00  0.00    +0.047 A 
ATOM      5  C   UNL     1       6.723  10.443  31.632  0.00  0.00    +0.003 A 
ATOM      6  C   UNL     1       7.941  10.874  32.200  0.00  0.00    -0.052 A 
ATOM      7  N   UNL     1       4.856  10.708  30.443  0.00  0.00    -0.360 N 
ATOM      8  C   UNL     1       4.857   9.412  30.880  0.00  0.00    +0.006 A 
ATOM      9  C   UNL     1       6.001   9.203  31.628  0.00  0.00    -0.012 A 
ATOM     10  H   UNL     1       4.158  11.112  29.878  0.00  0.00    +0.000 HD
ENDROOT
BRANCH   9  11
ATOM     11  C   UNL     1       6.370   7.937  32.336  0.00  0.00    +0.072 C 
BRANCH  11  12
ATOM     12  C   UNL     1       5.896   7.865  33.773  0.00  0.00    +0.311 C 
ATOM     13  O   UNL     1       4.852   7.376  34.181  0.00  0.00    -0.250 OA
BRANCH  12  14
ATOM     14  O   UNL     1       6.834   8.466  34.571  0.00  0.00    -0.468 OA
ATOM     15  C   UNL     1       6.323   9.034  35.779  0.00  0.00    +0.082 C 
ENDBRANCH  12  14
ENDBRANCH  11  12
ENDBRANCH   9  11
TORSDOF 3
ENDMDL
