MODEL 1
REMARK VINA RESULT:    -7.646      0.000      0.000
REMARK INTER + INTRA:         -10.622
REMARK INTER:                  -9.881
REMARK INTRA:                  -0.741
REMARK UNBOUND:                -0.741
REMARK  Name = 7b.sdf
REMARK  6 active torsions:
REMARK  status: ('A' for Active; 'I' for Inactive)
REMARK    1  A    between atoms: N_7  and  C_12
REMARK    2  A    between atoms: C_9  and  C_10
REMARK    3  A    between atoms: C_10  and  C_11
REMARK    4  A    between atoms: C_11  and  O_20
REMARK    5  A    between atoms: C_12  and  C_13
REMARK    6  A    between atoms: O_20  and  C_21
REMARK                            x       y       z     vdW  Elec       q    Type
REMARK                         _______ _______ _______ _____ _____    ______ ____
ROOT
ATOM      1  C   UNL     1       6.878  15.200  31.372  0.00  0.00    -0.061 A 
ATOM      2  C   UNL     1       7.948  14.341  31.602  0.00  0.00    -0.060 A 
ATOM      3  C   UNL     1       7.819  12.963  31.404  0.00  0.00    -0.038 A 
ATOM      4  C   UNL     1       6.579  12.467  30.969  0.00  0.00    +0.050 A 
ATOM      5  C   UNL     1       5.501  13.316  30.690  0.00  0.00    +0.004 A 
ATOM      6  C   UNL     1       5.658  14.702  30.905  0.00  0.00    -0.052 A 
ATOM      7  N   UNL     1       6.143  11.179  30.733  0.00  0.00    -0.342 N 
ATOM      8  C   UNL     1       4.855  11.195  30.259  0.00  0.00    +0.010 A 
ATOM      9  C   UNL     1       4.425  12.506  30.204  0.00  0.00    -0.012 A 
ENDROOT
BRANCH   9  10
ATOM     10  C   UNL     1       3.085  12.979  29.734  0.00  0.00    +0.072 C 
BRANCH  10  11
ATOM     11  C   UNL     1       3.056  13.315  28.256  0.00  0.00    +0.311 C 
ATOM     12  O   UNL     1       4.019  13.530  27.530  0.00  0.00    -0.250 OA
BRANCH  11  13
ATOM     13  O   UNL     1       1.754  13.336  27.833  0.00  0.00    -0.468 OA
ATOM     14  C   UNL     1       1.324  14.609  27.348  0.00  0.00    +0.082 C 
ENDBRANCH  11  13
ENDBRANCH  10  11
ENDBRANCH   9  10
BRANCH   7  15
ATOM     15  C   UNL     1       6.887   9.955  31.021  0.00  0.00    +0.048 C 
BRANCH  15  16
ATOM     16  C   UNL     1       6.484   9.248  32.292  0.00  0.00    -0.025 A 
ATOM     17  C   UNL     1       5.395   8.376  32.390  0.00  0.00    -0.039 A 
ATOM     18  C   UNL     1       5.102   7.805  33.619  0.00  0.00    +0.028 A 
ATOM     19  N   UNL     1       5.817   8.022  34.742  0.00  0.00    -0.263 NA
ATOM     20  C   UNL     1       6.877   8.847  34.630  0.00  0.00    +0.028 A 
ATOM     21  C   UNL     1       7.246   9.471  33.447  0.00  0.00    -0.039 A 
ENDBRANCH  15  16
ENDBRANCH   7  15
TORSDOF 5
ENDMDL
