MODEL 1
REMARK VINA RESULT:    -7.889      0.000      0.000
REMARK INTER + INTRA:         -10.914
REMARK INTER:                 -10.194
REMARK INTRA:                  -0.719
REMARK UNBOUND:                -0.719
REMARK  Name = 7c.sdf
REMARK  6 active torsions:
REMARK  status: ('A' for Active; 'I' for Inactive)
REMARK    1  A    between atoms: N_7  and  C_12
REMARK    2  A    between atoms: C_9  and  C_10
REMARK    3  A    between atoms: C_10  and  C_11
REMARK    4  A    between atoms: C_11  and  O_21
REMARK    5  A    between atoms: C_12  and  C_13
REMARK    6  A    between atoms: O_21  and  C_22
REMARK                            x       y       z     vdW  Elec       q    Type
REMARK                         _______ _______ _______ _____ _____    ______ ____
ROOT
ATOM      1  C   UNL     1       3.254  14.628  30.318  0.00  0.00    -0.061 A 
ATOM      2  C   UNL     1       3.149  13.255  30.128  0.00  0.00    -0.060 A 
ATOM      3  C   UNL     1       4.271  12.426  30.236  0.00  0.00    -0.038 A 
ATOM      4  C   UNL     1       5.507  13.014  30.552  0.00  0.00    +0.050 A 
ATOM      5  C   UNL     1       5.626  14.388  30.792  0.00  0.00    +0.004 A 
ATOM      6  C   UNL     1       4.482  15.203  30.657  0.00  0.00    -0.052 A 
ATOM      7  N   UNL     1       6.774  12.476  30.678  0.00  0.00    -0.342 N 
ATOM      8  C   UNL     1       7.660  13.451  31.065  0.00  0.00    +0.010 A 
ATOM      9  C   UNL     1       6.986  14.653  31.148  0.00  0.00    -0.012 A 
ENDROOT
BRANCH   9  10
ATOM     10  C   UNL     1       7.570  15.971  31.544  0.00  0.00    +0.072 C 
BRANCH  10  11
ATOM     11  C   UNL     1       7.515  17.005  30.440  0.00  0.00    +0.311 C 
ATOM     12  O   UNL     1       7.117  18.157  30.532  0.00  0.00    -0.250 OA
BRANCH  11  13
ATOM     13  O   UNL     1       7.981  16.442  29.281  0.00  0.00    -0.468 OA
ATOM     14  C   UNL     1       7.205  16.771  28.129  0.00  0.00    +0.082 C 
ENDBRANCH  11  13
ENDBRANCH  10  11
ENDBRANCH   9  10
BRANCH   7  15
ATOM     15  C   UNL     1       7.165  11.102  30.374  0.00  0.00    +0.048 C 
BRANCH  15  16
ATOM     16  C   UNL     1       6.671  10.145  31.430  0.00  0.00    -0.028 A 
ATOM     17  C   UNL     1       7.399   9.953  32.612  0.00  0.00    -0.055 A 
ATOM     18  C   UNL     1       7.012   8.978  33.533  0.00  0.00    -0.043 A 
ATOM     19  C   UNL     1       5.887   8.197  33.282  0.00  0.00    +0.041 A 
ATOM     20  C   UNL     1       5.123   8.408  32.137  0.00  0.00    -0.043 A 
ATOM     21  C   UNL     1       5.511   9.383  31.215  0.00  0.00    -0.055 A 
ATOM     22 CL   UNL     1       5.452   6.947  34.381  0.00  0.00    -0.084 Cl
ENDBRANCH  15  16
ENDBRANCH   7  15
TORSDOF 5
ENDMDL
