MODEL 1
REMARK VINA RESULT:    -7.944      0.000      0.000
REMARK INTER + INTRA:          -9.562
REMARK INTER:                  -9.338
REMARK INTRA:                  -0.224
REMARK UNBOUND:                -0.224
REMARK  Name = 8.sdf
REMARK  3 active torsions:
REMARK  status: ('A' for Active; 'I' for Inactive)
REMARK    1  A    between atoms: C_9  and  C_10
REMARK    2  A    between atoms: N_11  and  N_12
REMARK    3  A    between atoms: C_13  and  C_15
REMARK                            x       y       z     vdW  Elec       q    Type
REMARK                         _______ _______ _______ _____ _____    ______ ____
ROOT
ATOM      1  C   UNL     1       6.543  12.287  30.885  0.00  0.00    +0.055 C 
ATOM      2  N   UNL     1       5.761  11.858  29.951  0.00  0.00    -0.187 NA
ENDROOT
BRANCH   1  11
ATOM      3  C   UNL     1       5.792   8.057  32.802  0.00  0.00    -0.061 A 
ATOM      4  C   UNL     1       6.954   7.525  33.355  0.00  0.00    -0.060 A 
ATOM      5  C   UNL     1       8.156   8.234  33.316  0.00  0.00    -0.038 A 
ATOM      6  C   UNL     1       8.150   9.489  32.695  0.00  0.00    +0.047 A 
ATOM      7  C   UNL     1       7.005  10.052  32.127  0.00  0.00    +0.008 A 
ATOM      8  C   UNL     1       5.802   9.317  32.188  0.00  0.00    -0.052 A 
ATOM      9  N   UNL     1       9.178  10.386  32.514  0.00  0.00    -0.360 N 
ATOM     10  C   UNL     1       8.727  11.486  31.845  0.00  0.00    +0.011 A 
ATOM     11  C   UNL     1       7.377  11.326  31.584  0.00  0.00    +0.020 A 
ATOM     12  H   UNL     1      10.103  10.252  32.822  0.00  0.00    +0.000 HD
ENDBRANCH   1  11
BRANCH   2  13
ATOM     13  N   UNL     1       4.976  12.769  29.305  0.00  0.00    -0.203 N 
ATOM     14  C   UNL     1       3.656  12.907  29.719  0.00  0.00    +0.263 C 
ATOM     15  O   UNL     1       3.141  12.276  30.639  0.00  0.00    -0.268 OA
ATOM     16  H   UNL     1       5.334  13.313  28.567  0.00  0.00    +0.000 HD
BRANCH  14  17
ATOM     17  C   UNL     1       2.826  13.914  29.000  0.00  0.00    +0.038 A 
ATOM     18  C   UNL     1       2.079  13.600  27.857  0.00  0.00    -0.049 A 
ATOM     19  C   UNL     1       1.277  14.579  27.256  0.00  0.00    -0.047 A 
ATOM     20  C   UNL     1       1.219  15.864  27.797  0.00  0.00    +0.018 A 
ATOM     21  C   UNL     1       1.953  16.185  28.936  0.00  0.00    -0.047 A 
ATOM     22  C   UNL     1       2.751  15.208  29.539  0.00  0.00    -0.049 A 
ATOM     23 BR   UNL     1       0.120  17.173  26.992  0.00  0.00    -0.050 Br
ENDBRANCH  14  17
ENDBRANCH   2  13
TORSDOF 3
ENDMDL
