MODEL 1
REMARK VINA RESULT:    -8.350      0.000      0.000
REMARK INTER + INTRA:         -11.648
REMARK INTER:                 -10.790
REMARK INTRA:                  -0.857
REMARK UNBOUND:                -0.857
REMARK  Name = 8a.sdf
REMARK  5 active torsions:
REMARK  status: ('A' for Active; 'I' for Inactive)
REMARK    1  A    between atoms: N_7  and  C_12
REMARK    2  A    between atoms: C_9  and  C_10
REMARK    3  A    between atoms: N_11  and  N_20
REMARK    4  A    between atoms: C_12  and  C_13
REMARK    5  A    between atoms: C_21  and  C_23
REMARK                            x       y       z     vdW  Elec       q    Type
REMARK                         _______ _______ _______ _____ _____    ______ ____
ROOT
ATOM      1  C   UNL     1       0.626  15.947  26.469  0.00  0.00    -0.061 A 
ATOM      2  C   UNL     1       0.888  17.086  25.717  0.00  0.00    -0.060 A 
ATOM      3  C   UNL     1       2.199  17.532  25.521  0.00  0.00    -0.038 A 
ATOM      4  C   UNL     1       3.249  16.794  26.093  0.00  0.00    +0.050 A 
ATOM      5  C   UNL     1       3.010  15.618  26.816  0.00  0.00    +0.009 A 
ATOM      6  C   UNL     1       1.675  15.203  27.015  0.00  0.00    -0.052 A 
ATOM      7  N   UNL     1       4.614  17.008  26.111  0.00  0.00    -0.342 N 
ATOM      8  C   UNL     1       5.239  15.966  26.751  0.00  0.00    +0.015 A 
ATOM      9  C   UNL     1       4.280  15.079  27.197  0.00  0.00    +0.020 A 
ENDROOT
BRANCH   9  10
ATOM     10  C   UNL     1       4.527  13.845  27.906  0.00  0.00    +0.055 C 
ATOM     11  N   UNL     1       4.282  13.767  29.175  0.00  0.00    -0.187 NA
BRANCH  11  12
ATOM     12  N   UNL     1       4.552  12.564  29.765  0.00  0.00    -0.203 N 
ATOM     13  C   UNL     1       5.756  12.388  30.435  0.00  0.00    +0.263 C 
ATOM     14  O   UNL     1       6.627  13.238  30.565  0.00  0.00    -0.268 OA
ATOM     15  H   UNL     1       3.900  11.829  29.715  0.00  0.00    +0.000 HD
BRANCH  13  16
ATOM     16  C   UNL     1       5.949  11.049  31.066  0.00  0.00    +0.038 A 
ATOM     17  C   UNL     1       5.097   9.966  30.817  0.00  0.00    -0.049 A 
ATOM     18  C   UNL     1       5.328   8.735  31.439  0.00  0.00    -0.047 A 
ATOM     19  C   UNL     1       6.417   8.585  32.300  0.00  0.00    +0.018 A 
ATOM     20  C   UNL     1       7.283   9.647  32.537  0.00  0.00    -0.047 A 
ATOM     21  C   UNL     1       7.053  10.878  31.915  0.00  0.00    -0.049 A 
ATOM     22 BR   UNL     1       6.721   6.920  33.141  0.00  0.00    -0.050 Br
ENDBRANCH  13  16
ENDBRANCH  11  12
ENDBRANCH   9  10
BRANCH   7  23
ATOM     23  C   UNL     1       5.310  18.201  25.630  0.00  0.00    +0.048 C 
BRANCH  23  24
ATOM     24  C   UNL     1       6.423  17.852  24.673  0.00  0.00    -0.028 A 
ATOM     25  C   UNL     1       7.763  18.067  25.028  0.00  0.00    -0.056 A 
ATOM     26  C   UNL     1       8.786  17.846  24.104  0.00  0.00    -0.047 A 
ATOM     27  C   UNL     1       8.475  17.396  22.824  0.00  0.00    +0.018 A 
ATOM     28  C   UNL     1       7.155  17.127  22.471  0.00  0.00    -0.047 A 
ATOM     29  C   UNL     1       6.132  17.354  23.393  0.00  0.00    -0.056 A 
ATOM     30 BR   UNL     1       9.852  17.180  21.547  0.00  0.00    -0.050 Br
ENDBRANCH  23  24
ENDBRANCH   7  23
TORSDOF 5
ENDMDL
