MODEL 1
REMARK VINA RESULT:    -8.761      0.000      0.000
REMARK INTER + INTRA:         -11.446
REMARK INTER:                 -10.810
REMARK INTRA:                  -0.636
REMARK UNBOUND:                -0.636
REMARK  Name = 8d.sdf
REMARK  4 active torsions:
REMARK  status: ('A' for Active; 'I' for Inactive)
REMARK    1  A    between atoms: C_9  and  C_10
REMARK    2  A    between atoms: N_11  and  N_19
REMARK    3  A    between atoms: C_12  and  C_13
REMARK    4  A    between atoms: C_20  and  C_22
REMARK                            x       y       z     vdW  Elec       q    Type
REMARK                         _______ _______ _______ _____ _____    ______ ____
ROOT
ATOM      1  C   UNL     1       0.305  16.085  26.537  0.00  0.00    -0.061 A 
ATOM      2  C   UNL     1       0.576  17.247  25.828  0.00  0.00    -0.060 A 
ATOM      3  C   UNL     1       1.891  17.607  25.521  0.00  0.00    -0.037 A 
ATOM      4  C   UNL     1       2.938  16.772  25.956  0.00  0.00    +0.057 A 
ATOM      5  C   UNL     1       2.684  15.583  26.654  0.00  0.00    +0.009 A 
ATOM      6  C   UNL     1       1.345  15.243  26.951  0.00  0.00    -0.052 A 
ATOM      7  N   UNL     1       4.316  16.875  25.778  0.00  0.00    -0.282 N 
ATOM      8  C   UNL     1       4.904  15.784  26.389  0.00  0.00    +0.023 A 
ATOM      9  C   UNL     1       3.939  14.955  26.921  0.00  0.00    +0.020 A 
ATOM     10  C   UNL     1       5.023  17.899  25.101  0.00  0.00    +0.263 C 
ATOM     11  O   UNL     1       4.529  19.030  25.088  0.00  0.00    -0.267 OA
ENDROOT
BRANCH  10  12
ATOM     12  C   UNL     1       6.336  17.672  24.446  0.00  0.00    +0.040 A 
ATOM     13  C   UNL     1       7.527  17.947  25.132  0.00  0.00    -0.049 A 
ATOM     14  C   UNL     1       8.749  17.868  24.466  0.00  0.00    -0.061 A 
ATOM     15  C   UNL     1       8.785  17.468  23.132  0.00  0.00    -0.062 A 
ATOM     16  C   UNL     1       7.608  17.109  22.473  0.00  0.00    -0.061 A 
ATOM     17  C   UNL     1       6.382  17.201  23.130  0.00  0.00    -0.049 A 
ENDBRANCH  10  12
BRANCH   9  18
ATOM     18  C   UNL     1       4.205  13.711  27.620  0.00  0.00    +0.055 C 
ATOM     19  N   UNL     1       4.631  13.759  28.841  0.00  0.00    -0.187 NA
BRANCH  19  20
ATOM     20  N   UNL     1       4.864  12.562  29.464  0.00  0.00    -0.203 N 
ATOM     21  C   UNL     1       5.936  12.449  30.344  0.00  0.00    +0.263 C 
ATOM     22  O   UNL     1       6.718  13.353  30.627  0.00  0.00    -0.268 OA
ATOM     23  H   UNL     1       4.279  11.789  29.292  0.00  0.00    +0.000 HD
BRANCH  21  24
ATOM     24  C   UNL     1       6.100  11.122  31.006  0.00  0.00    +0.038 A 
ATOM     25  C   UNL     1       5.223  10.054  30.771  0.00  0.00    -0.049 A 
ATOM     26  C   UNL     1       5.398   8.840  31.444  0.00  0.00    -0.047 A 
ATOM     27  C   UNL     1       6.455   8.688  32.339  0.00  0.00    +0.018 A 
ATOM     28  C   UNL     1       7.360   9.726  32.550  0.00  0.00    -0.047 A 
ATOM     29  C   UNL     1       7.184  10.940  31.879  0.00  0.00    -0.049 A 
ATOM     30 BR   UNL     1       6.659   7.059  33.278  0.00  0.00    -0.050 Br
ENDBRANCH  21  24
ENDBRANCH  19  20
ENDBRANCH   9  18
TORSDOF 4
ENDMDL
