MODEL 1
REMARK VINA RESULT:    -8.239      0.000      0.000
REMARK INTER + INTRA:         -10.309
REMARK INTER:                  -9.684
REMARK INTRA:                  -0.625
REMARK UNBOUND:                -0.625
REMARK  Name = 9.sdf
REMARK  3 active torsions:
REMARK  status: ('A' for Active; 'I' for Inactive)
REMARK    1  A    between atoms: C_9  and  C_10
REMARK    2  A    between atoms: C_11  and  C_12
REMARK    3  A    between atoms: C_12  and  C_13
REMARK                            x       y       z     vdW  Elec       q    Type
REMARK                         _______ _______ _______ _____ _____    ______ ____
ROOT
ATOM      1  C   UNL     1       3.486  14.601  30.546  0.00  0.00    -0.061 A 
ATOM      2  C   UNL     1       3.694  15.800  29.872  0.00  0.00    -0.060 A 
ATOM      3  C   UNL     1       4.986  16.286  29.657  0.00  0.00    -0.038 A 
ATOM      4  C   UNL     1       6.060  15.522  30.132  0.00  0.00    +0.047 A 
ATOM      5  C   UNL     1       5.893  14.304  30.797  0.00  0.00    +0.007 A 
ATOM      6  C   UNL     1       4.571  13.851  31.016  0.00  0.00    -0.052 A 
ATOM      7  N   UNL     1       7.413  15.769  30.071  0.00  0.00    -0.360 N 
ATOM      8  C   UNL     1       8.110  14.757  30.676  0.00  0.00    +0.010 A 
ATOM      9  C   UNL     1       7.204  13.816  31.112  0.00  0.00    +0.000 A 
ATOM     10  H   UNL     1       7.821  16.561  29.652  0.00  0.00    +0.000 HD
ENDROOT
BRANCH   9  11
ATOM     11  C   UNL     1       7.598  12.608  31.769  0.00  0.00    -0.049 C 
ATOM     12  C   UNL     1       7.930  11.474  31.135  0.00  0.00    -0.014 C 
BRANCH  12  13
ATOM     13  C   UNL     1       8.290  10.238  31.875  0.00  0.00    +0.186 C 
ATOM     14  O   UNL     1       9.447   9.856  31.997  0.00  0.00    -0.287 OA
BRANCH  13  15
ATOM     15  C   UNL     1       7.154   9.453  32.434  0.00  0.00    +0.022 A 
ATOM     16  C   UNL     1       6.062   9.151  31.615  0.00  0.00    -0.051 A 
ATOM     17  C   UNL     1       4.979   8.436  32.134  0.00  0.00    -0.061 A 
ATOM     18  C   UNL     1       4.992   8.010  33.462  0.00  0.00    -0.062 A 
ATOM     19  C   UNL     1       6.091   8.284  34.274  0.00  0.00    -0.061 A 
ATOM     20  C   UNL     1       7.173   8.999  33.760  0.00  0.00    -0.051 A 
ENDBRANCH  13  15
ENDBRANCH  12  13
ENDBRANCH   9  11
TORSDOF 3
ENDMDL
