REMARK  Name = 8a.sdf
REMARK  5 active torsions:
REMARK  status: ('A' for Active; 'I' for Inactive)
REMARK    1  A    between atoms: N_7  and  C_12
REMARK    2  A    between atoms: C_9  and  C_10
REMARK    3  A    between atoms: N_11  and  N_20
REMARK    4  A    between atoms: C_12  and  C_13
REMARK    5  A    between atoms: C_21  and  C_23
REMARK                            x       y       z     vdW  Elec       q    Type
REMARK                         _______ _______ _______ _____ _____    ______ ____
ROOT
ATOM      1  C   UNL     1      -2.124  -0.918  -0.069  0.00  0.00    -0.061 A 
ATOM      2  C   UNL     1      -2.178   0.465  -0.195  0.00  0.00    -0.060 A 
ATOM      3  C   UNL     1      -1.008   1.231  -0.216  0.00  0.00    -0.038 A 
ATOM      4  C   UNL     1       0.227   0.568  -0.118  0.00  0.00    +0.050 A 
ATOM      5  C   UNL     1       0.306  -0.828  -0.036  0.00  0.00    +0.009 A 
ATOM      6  C   UNL     1      -0.893  -1.574   0.003  0.00  0.00    -0.052 A 
ATOM      7  N   UNL     1       1.522   1.048  -0.065  0.00  0.00    -0.342 N 
ATOM      8  C   UNL     1       2.406  -0.002  -0.033  0.00  0.00    +0.015 A 
ATOM      9  C   UNL     1       1.692  -1.184  -0.021  0.00  0.00    +0.020 A 
ENDROOT
BRANCH   9  10
ATOM     10  C   UNL     1       2.252  -2.515  -0.003  0.00  0.00    +0.055 C 
ATOM     11  N   UNL     1       3.537  -2.677  -0.035  0.00  0.00    -0.187 NA
BRANCH  11  12
ATOM     12  N   UNL     1       3.978  -3.970  -0.022  0.00  0.00    -0.203 N 
ATOM     13  C   UNL     1       5.343  -4.226  -0.034  0.00  0.00    +0.263 C 
ATOM     14  O   UNL     1       6.224  -3.377  -0.044  0.00  0.00    -0.268 OA
ATOM     15  H   UNL     1       3.334  -4.714  -0.005  0.00  0.00    +0.000 HD
BRANCH  13  16
ATOM     16  C   UNL     1       5.726  -5.668   0.006  0.00  0.00    +0.038 A 
ATOM     17  C   UNL     1       4.932  -6.677  -0.554  0.00  0.00    -0.049 A 
ATOM     18  C   UNL     1       5.343  -8.012  -0.484  0.00  0.00    -0.047 A 
ATOM     19  C   UNL     1       6.552  -8.336   0.135  0.00  0.00    +0.018 A 
ATOM     20  C   UNL     1       7.360  -7.340   0.674  0.00  0.00    -0.047 A 
ATOM     21  C   UNL     1       6.950  -6.005   0.604  0.00  0.00    -0.049 A 
ATOM     22 BR   UNL     1       7.099 -10.142   0.230  0.00  0.00    -0.050 Br
ENDBRANCH  13  16
ENDBRANCH  11  12
ENDBRANCH   9  10
BRANCH   7  23
ATOM     23  C   UNL     1       1.921   2.450   0.052  0.00  0.00    +0.048 C 
BRANCH  23  24
ATOM     24  C   UNL     1       2.186   3.071  -1.297  0.00  0.00    -0.028 A 
ATOM     25  C   UNL     1       1.181   3.788  -1.963  0.00  0.00    -0.056 A 
ATOM     26  C   UNL     1       1.391   4.270  -3.256  0.00  0.00    -0.047 A 
ATOM     27  C   UNL     1       2.613   4.050  -3.886  0.00  0.00    +0.018 A 
ATOM     28  C   UNL     1       3.641   3.386  -3.220  0.00  0.00    -0.047 A 
ATOM     29  C   UNL     1       3.428   2.899  -1.929  0.00  0.00    -0.056 A 
ATOM     30 BR   UNL     1       2.866   4.627  -5.668  0.00  0.00    -0.050 Br
ENDBRANCH  23  24
ENDBRANCH   7  23
TORSDOF 5
