REMARK  Name = native.pdb
REMARK  11 active torsions:
REMARK  status: ('A' for Active; 'I' for Inactive)
REMARK    1  A    between atoms: C_13  and  N_34
REMARK    2  A    between atoms: C_14  and  N_33
REMARK    3  A    between atoms: C_15  and  O_38
REMARK    4  A    between atoms: C_16  and  O_38
REMARK    5  A    between atoms: C_25  and  N_35
REMARK    6  A    between atoms: C_26  and  C_27
REMARK    7  A    between atoms: C_26  and  N_32
REMARK    8  A    between atoms: C_27  and  O_39
REMARK    9  A    between atoms: C_28  and  C_29
REMARK   10  A    between atoms: C_28  and  O_37
REMARK   11  A    between atoms: C_29  and  O_39
REMARK                            x       y       z     vdW  Elec       q    Type
REMARK                         _______ _______ _______ _____ _____    ______ ____
ROOT
ATOM      1  C   UNL     1      -4.473   2.321   1.935  0.00  0.00    -0.037 A 
ATOM      2  C   UNL     1      -3.133   2.047   1.669  0.00  0.00    -0.016 A 
ATOM      3  C   UNL     1      -4.435   4.106   0.316  0.00  0.00    -0.019 A 
ATOM      4  C   UNL     1      -5.138   3.348   1.260  0.00  0.00    +0.034 A 
ATOM      5  C   UNL     1      -2.424   2.817   0.739  0.00  0.00    +0.147 A 
ATOM      6  C   UNL     1      -3.090   3.841   0.053  0.00  0.00    +0.085 A 
ATOM      7 CL   UNL     1      -2.297   4.771  -1.169  0.00  0.00    -0.080 Cl
ENDROOT
BRANCH   4  17
ATOM      8  C   UNL     1     -10.484   5.931   0.388  0.00  0.00    -0.018 A 
ATOM      9  C   UNL     1     -10.676   4.619   0.037  0.00  0.00    +0.007 A 
ATOM     10  C   UNL     1      -7.331   6.944   1.783  0.00  0.00    +0.119 A 
ATOM     11  C   UNL     1      -9.174   6.036   0.897  0.00  0.00    +0.094 A 
ATOM     12  C   UNL     1      -8.574   4.773   0.864  0.00  0.00    +0.108 A 
ATOM     13  C   UNL     1      -7.263   4.652   1.342  0.00  0.00    +0.150 A 
ATOM     14  N   UNL     1      -8.571   7.151   1.355  0.00  0.00    -0.234 NA
ATOM     15  N   UNL     1      -6.667   5.784   1.801  0.00  0.00    -0.218 NA
ATOM     16  N   UNL     1      -9.522   3.917   0.321  0.00  0.00    -0.341 N 
ATOM     17  N   UNL     1      -6.537   3.457   1.421  0.00  0.00    -0.298 N 
ATOM     18  H   UNL     1      -7.040   2.631   1.603  0.00  0.00    +0.000 HD
BRANCH  16  19
ATOM     19  C   UNL     1      -9.440   2.480   0.078  0.00  0.00    +0.047 C 
BRANCH  19  20
ATOM     20  C   UNL     1      -9.935   1.686   1.285  0.00  0.00    +0.066 C 
BRANCH  20  21
ATOM     21  O   UNL     1      -9.956   0.267   1.047  0.00  0.00    -0.376 OA
BRANCH  21  22
ATOM     22  C   UNL     1     -10.452  -0.397   2.230  0.00  0.00    +0.071 C 
BRANCH  22  23
ATOM     23  C   UNL     1     -10.536  -1.912   2.058  0.00  0.00    +0.068 C 
BRANCH  23  24
ATOM     24  O   UNL     1      -9.248  -2.471   1.827  0.00  0.00    -0.393 OA
ATOM     25  H   UNL     1      -8.873  -2.096   1.015  0.00  0.00    +0.000 HD
ENDBRANCH  23  24
ENDBRANCH  22  23
ENDBRANCH  21  22
ENDBRANCH  20  21
ENDBRANCH  19  20
ENDBRANCH  16  19
ENDBRANCH   4  17
BRANCH   5  26
ATOM     26  O   UNL     1      -1.112   2.572   0.395  0.00  0.00    -0.454 OA
BRANCH  26  32
ATOM     27  C   UNL     1       1.559   0.461   1.649  0.00  0.00    -0.057 A 
ATOM     28  C   UNL     1       1.546   0.756   3.016  0.00  0.00    -0.040 A 
ATOM     29  C   UNL     1       0.640   1.062   0.796  0.00  0.00    -0.019 A 
ATOM     30  C   UNL     1      -0.240   2.325   2.667  0.00  0.00    +0.002 A 
ATOM     31  C   UNL     1       0.615   1.652   3.545  0.00  0.00    +0.038 A 
ATOM     32  C   UNL     1      -0.262   1.992   1.306  0.00  0.00    +0.130 A 
BRANCH  31  34
ATOM     33  C   UNL     1       1.118   1.265   5.968  0.00  0.00    +0.304 C 
ATOM     34  N   UNL     1       0.448   1.887   4.928  0.00  0.00    -0.269 N 
ATOM     35  N   UNL     1       0.665   1.696   7.190  0.00  0.00    -0.296 N 
ATOM     36  O   UNL     1       2.016   0.439   5.863  0.00  0.00    -0.253 OA
ATOM     37  H   UNL     1      -0.218   2.566   5.179  0.00  0.00    +0.000 HD
ATOM     38  H   UNL     1      -0.157   2.237   7.219  0.00  0.00    +0.000 HD
BRANCH  35  44
ATOM     39  C   UNL     1       3.312   0.399  10.405  0.00  0.00    -0.053 C 
ATOM     40  C   UNL     1       3.322   1.842   9.904  0.00  0.00    -0.051 C 
ATOM     41  C   UNL     1       1.940  -0.263  10.260  0.00  0.00    -0.051 C 
ATOM     42  C   UNL     1       2.777   1.929   8.483  0.00  0.00    -0.034 C 
ATOM     43  C   UNL     1       1.328  -0.084   8.863  0.00  0.00    -0.034 C 
ATOM     44  C   UNL     1       1.340   1.395   8.449  0.00  0.00    +0.025 C 
ENDBRANCH  35  44
ENDBRANCH  31  34
ENDBRANCH  26  32
ENDBRANCH   5  26
TORSDOF 11
