MODEL 1
REMARK VINA RESULT:    -9.023      0.000      0.000
REMARK INTER + INTRA:         -10.414
REMARK INTER:                 -10.078
REMARK INTRA:                  -0.336
REMARK UNBOUND:                -0.336
REMARK  Name = 0a.sdf
REMARK  2 active torsions:
REMARK  status: ('A' for Active; 'I' for Inactive)
REMARK    1  A    between atoms: N_7  and  C_10
REMARK    2  A    between atoms: C_10  and  C_11
REMARK                            x       y       z     vdW  Elec       q    Type
REMARK                         _______ _______ _______ _____ _____    ______ ____
ROOT
ATOM      1  C   UNL     1      -9.261  13.283  24.303  0.00  0.00    -0.061 A 
ATOM      2  C   UNL     1     -10.264  12.877  23.431  0.00  0.00    -0.060 A 
ATOM      3  C   UNL     1     -11.078  11.777  23.736  0.00  0.00    -0.038 A 
ATOM      4  C   UNL     1     -10.863  11.096  24.945  0.00  0.00    +0.049 A 
ATOM      5  C   UNL     1      -9.878  11.519  25.848  0.00  0.00    -0.000 A 
ATOM      6  C   UNL     1      -9.067  12.623  25.518  0.00  0.00    -0.053 A 
ATOM      7  N   UNL     1     -11.444   9.962  25.493  0.00  0.00    -0.342 N 
ATOM      8  C   UNL     1     -10.918   9.725  26.741  0.00  0.00    +0.006 A 
ATOM      9  C   UNL     1      -9.945  10.668  26.983  0.00  0.00    -0.036 A 
ENDROOT
BRANCH   7  10
ATOM     10  C   UNL     1     -12.364   9.042  24.823  0.00  0.00    +0.048 C 
BRANCH  10  11
ATOM     11  C   UNL     1     -13.805   9.423  25.045  0.00  0.00    -0.028 A 
ATOM     12  C   UNL     1     -14.811   8.448  24.996  0.00  0.00    -0.056 A 
ATOM     13  C   UNL     1     -16.157   8.810  25.059  0.00  0.00    -0.047 A 
ATOM     14  C   UNL     1     -16.505  10.151  25.191  0.00  0.00    +0.018 A 
ATOM     15  C   UNL     1     -15.520  11.127  25.318  0.00  0.00    -0.047 A 
ATOM     16  C   UNL     1     -14.172  10.764  25.250  0.00  0.00    -0.056 A 
ATOM     17 BR   UNL     1     -18.327  10.654  25.148  0.00  0.00    -0.050 Br
ENDBRANCH  10  11
ENDBRANCH   7  10
TORSDOF 2
ENDMDL
