MODEL 1
REMARK VINA RESULT:    -8.719      0.000      0.000
REMARK INTER + INTRA:          -9.458
REMARK INTER:                  -9.228
REMARK INTRA:                  -0.229
REMARK UNBOUND:                -0.229
REMARK  Name = 0d.sdf
REMARK  1 active torsions:
REMARK  status: ('A' for Active; 'I' for Inactive)
REMARK    1  A    between atoms: C_10  and  C_11
REMARK                            x       y       z     vdW  Elec       q    Type
REMARK                         _______ _______ _______ _____ _____    ______ ____
ROOT
ATOM      1  C   UNL     1     -16.893  10.261  26.016  0.00  0.00    -0.061 A 
ATOM      2  C   UNL     1     -16.142  10.732  24.945  0.00  0.00    -0.060 A 
ATOM      3  C   UNL     1     -14.745  10.779  25.009  0.00  0.00    -0.037 A 
ATOM      4  C   UNL     1     -14.112  10.341  26.188  0.00  0.00    +0.057 A 
ATOM      5  C   UNL     1     -14.858   9.855  27.269  0.00  0.00    +0.000 A 
ATOM      6  C   UNL     1     -16.263   9.821  27.182  0.00  0.00    -0.053 A 
ATOM      7  N   UNL     1     -12.759  10.226  26.516  0.00  0.00    -0.283 N 
ATOM      8  C   UNL     1     -12.680   9.728  27.810  0.00  0.00    +0.014 A 
ATOM      9  C   UNL     1     -13.944   9.478  28.283  0.00  0.00    -0.036 A 
ATOM     10  C   UNL     1     -11.647  10.540  25.695  0.00  0.00    +0.263 C 
ATOM     11  O   UNL     1     -11.800  11.358  24.793  0.00  0.00    -0.267 OA
ENDROOT
BRANCH  10  12
ATOM     12  C   UNL     1     -10.307   9.920  25.883  0.00  0.00    +0.040 A 
ATOM     13  C   UNL     1     -10.022   8.669  25.319  0.00  0.00    -0.049 A 
ATOM     14  C   UNL     1      -8.784   8.067  25.538  0.00  0.00    -0.061 A 
ATOM     15  C   UNL     1      -7.817   8.728  26.296  0.00  0.00    -0.062 A 
ATOM     16  C   UNL     1      -8.077   9.998  26.812  0.00  0.00    -0.061 A 
ATOM     17  C   UNL     1      -9.320  10.601  26.600  0.00  0.00    -0.049 A 
ENDBRANCH  10  12
TORSDOF 1
ENDMDL
