MODEL 1
REMARK VINA RESULT:   -10.151      0.000      0.000
REMARK INTER + INTRA:         -14.778
REMARK INTER:                 -13.712
REMARK INTRA:                  -1.066
REMARK UNBOUND:                -1.066
REMARK  Name = 10a.sdf
REMARK  7 active torsions:
REMARK  status: ('A' for Active; 'I' for Inactive)
REMARK    1  A    between atoms: N_7  and  C_22
REMARK    2  A    between atoms: C_9  and  C_10
REMARK    3  A    between atoms: C_11  and  C_12
REMARK    4  A    between atoms: C_12  and  C_13
REMARK    5  A    between atoms: C_17  and  O_20
REMARK    6  A    between atoms: O_20  and  C_21
REMARK    7  A    between atoms: C_22  and  C_23
REMARK                            x       y       z     vdW  Elec       q    Type
REMARK                         _______ _______ _______ _____ _____    ______ ____
ROOT
ATOM      1  C   UNL     1     -11.119  11.900  25.133  0.00  0.00    -0.061 A 
ATOM      2  C   UNL     1     -10.261  11.109  25.886  0.00  0.00    -0.060 A 
ATOM      3  C   UNL     1     -10.756  10.101  26.720  0.00  0.00    -0.038 A 
ATOM      4  C   UNL     1     -12.145   9.900  26.772  0.00  0.00    +0.050 A 
ATOM      5  C   UNL     1     -13.027  10.659  25.992  0.00  0.00    +0.007 A 
ATOM      6  C   UNL     1     -12.499  11.681  25.173  0.00  0.00    -0.052 A 
ATOM      7  N   UNL     1     -12.916   9.026  27.519  0.00  0.00    -0.342 N 
ATOM      8  C   UNL     1     -14.242   9.165  27.176  0.00  0.00    +0.013 A 
ATOM      9  C   UNL     1     -14.346  10.166  26.234  0.00  0.00    +0.000 A 
ENDROOT
BRANCH   9  10
ATOM     10  C   UNL     1     -15.547  10.614  25.596  0.00  0.00    -0.049 C 
ATOM     11  C   UNL     1     -16.783  10.189  25.887  0.00  0.00    -0.014 C 
BRANCH  11  12
ATOM     12  C   UNL     1     -17.959  10.667  25.105  0.00  0.00    +0.186 C 
ATOM     13  O   UNL     1     -18.010  11.768  24.585  0.00  0.00    -0.287 OA
BRANCH  12  14
ATOM     14  C   UNL     1     -19.112   9.714  25.017  0.00  0.00    +0.022 A 
ATOM     15  C   UNL     1     -20.383  10.154  25.384  0.00  0.00    -0.047 A 
ATOM     16  C   UNL     1     -21.457   9.257  25.372  0.00  0.00    -0.019 A 
ATOM     17  C   UNL     1     -21.277   7.931  24.976  0.00  0.00    +0.120 A 
ATOM     18  C   UNL     1     -20.010   7.500  24.569  0.00  0.00    -0.019 A 
ATOM     19  C   UNL     1     -18.933   8.390  24.588  0.00  0.00    -0.047 A 
BRANCH  17  20
ATOM     20  O   UNL     1     -22.385   7.139  25.067  0.00  0.00    -0.495 OA
ATOM     21  C   UNL     1     -22.632   6.527  26.328  0.00  0.00    +0.079 C 
ENDBRANCH  17  20
ENDBRANCH  12  14
ENDBRANCH  11  12
ENDBRANCH   9  10
BRANCH   7  22
ATOM     22  C   UNL     1     -12.441   8.159  28.595  0.00  0.00    +0.048 C 
BRANCH  22  23
ATOM     23  C   UNL     1     -11.800   6.901  28.062  0.00  0.00    -0.028 A 
ATOM     24  C   UNL     1     -12.564   5.952  27.367  0.00  0.00    -0.056 A 
ATOM     25  C   UNL     1     -12.000   4.740  26.964  0.00  0.00    -0.047 A 
ATOM     26  C   UNL     1     -10.662   4.475  27.244  0.00  0.00    +0.018 A 
ATOM     27  C   UNL     1      -9.873   5.426  27.887  0.00  0.00    -0.047 A 
ATOM     28  C   UNL     1     -10.440   6.636  28.293  0.00  0.00    -0.056 A 
ATOM     29 BR   UNL     1      -9.920   2.801  26.776  0.00  0.00    -0.050 Br
ENDBRANCH  22  23
ENDBRANCH   7  22
TORSDOF 6
ENDMDL
