MODEL 1
REMARK VINA RESULT:    -7.111      0.000      0.000
REMARK INTER + INTRA:          -8.101
REMARK INTER:                  -7.943
REMARK INTRA:                  -0.158
REMARK UNBOUND:                -0.158
REMARK  Name = 12.sdf
REMARK  2 active torsions:
REMARK  status: ('A' for Active; 'I' for Inactive)
REMARK    1  A    between atoms: C_9  and  C_10
REMARK    2  A    between atoms: C_10  and  C_11
REMARK                            x       y       z     vdW  Elec       q    Type
REMARK                         _______ _______ _______ _____ _____    ______ ____
ROOT
ATOM      1  C   UNL     1     -16.986   9.630  25.129  0.00  0.00    -0.061 A 
ATOM      2  C   UNL     1     -17.169  10.987  24.879  0.00  0.00    -0.060 A 
ATOM      3  C   UNL     1     -18.408  11.477  24.459  0.00  0.00    -0.038 A 
ATOM      4  C   UNL     1     -19.453  10.558  24.306  0.00  0.00    +0.047 A 
ATOM      5  C   UNL     1     -19.309   9.193  24.567  0.00  0.00    +0.003 A 
ATOM      6  C   UNL     1     -18.046   8.724  24.981  0.00  0.00    -0.052 A 
ATOM      7  N   UNL     1     -20.754  10.764  23.917  0.00  0.00    -0.360 N 
ATOM      8  C   UNL     1     -21.443   9.583  23.929  0.00  0.00    +0.006 A 
ATOM      9  C   UNL     1     -20.588   8.580  24.348  0.00  0.00    -0.012 A 
ATOM     10  H   UNL     1     -21.136  11.636  23.665  0.00  0.00    +0.000 HD
ENDROOT
BRANCH   9  11
ATOM     11  C   UNL     1     -20.967   7.147  24.578  0.00  0.00    +0.072 C 
BRANCH  11  12
ATOM     12  C   UNL     1     -22.077   6.912  25.578  0.00  0.00    +0.309 C 
ATOM     13  O   UNL     1     -21.901   6.979  26.790  0.00  0.00    -0.251 OA
ATOM     14  O   UNL     1     -23.310   6.719  25.058  0.00  0.00    -0.480 OA
ENDBRANCH  11  12
ENDBRANCH   9  11
TORSDOF 2
ENDMDL
