MODEL 1
REMARK VINA RESULT:    -7.884      0.000      0.000
REMARK INTER + INTRA:          -9.485
REMARK INTER:                  -9.266
REMARK INTRA:                  -0.219
REMARK UNBOUND:                -0.219
REMARK  Name = 14e.sdf
REMARK  5 active torsions:
REMARK  status: ('A' for Active; 'I' for Inactive)
REMARK    1  A    between atoms: C_9  and  C_10
REMARK    2  A    between atoms: C_10  and  O_11
REMARK    3  A    between atoms: O_11  and  C_12
REMARK    4  A    between atoms: C_12  and  C_13
REMARK    5  A    between atoms: C_15  and  C_16
REMARK                            x       y       z     vdW  Elec       q    Type
REMARK                         _______ _______ _______ _____ _____    ______ ____
ROOT
ATOM      1  C   UNL     1      -9.955  13.086  23.488  0.00  0.00    -0.061 A 
ATOM      2  C   UNL     1      -8.821  12.809  24.237  0.00  0.00    -0.060 A 
ATOM      3  C   UNL     1      -8.751  11.661  25.032  0.00  0.00    -0.037 A 
ATOM      4  C   UNL     1      -9.857  10.786  25.072  0.00  0.00    +0.057 A 
ATOM      5  C   UNL     1     -11.008  11.059  24.325  0.00  0.00    +0.007 A 
ATOM      6  C   UNL     1     -11.047  12.219  23.520  0.00  0.00    -0.052 A 
ATOM      7  N   UNL     1     -10.057   9.582  25.765  0.00  0.00    -0.287 N 
ATOM      8  C   UNL     1     -11.333   9.138  25.444  0.00  0.00    +0.020 A 
ATOM      9  C   UNL     1     -11.945  10.016  24.573  0.00  0.00    +0.015 A 
ATOM     10  C   UNL     1      -9.113   8.956  26.618  0.00  0.00    +0.229 C 
ATOM     11  C   UNL     1      -9.495   7.660  27.272  0.00  0.00    +0.015 C 
ATOM     12  O   UNL     1      -8.015   9.471  26.809  0.00  0.00    -0.273 OA
ENDROOT
BRANCH   9  13
ATOM     13  C   UNL     1     -13.315   9.890  23.982  0.00  0.00    +0.119 C 
BRANCH  13  14
ATOM     14  O   UNL     1     -14.308   9.715  25.005  0.00  0.00    -0.460 OA
BRANCH  14  15
ATOM     15  C   UNL     1     -15.054  10.807  25.306  0.00  0.00    +0.304 C 
ATOM     16  C   UNL     1     -14.281  11.765  26.162  0.00  0.00    +0.033 C 
ATOM     17  O   UNL     1     -16.202  11.017  24.935  0.00  0.00    -0.251 OA
ENDBRANCH  14  15
ENDBRANCH  13  14
ENDBRANCH   9  13
TORSDOF 3
ENDMDL
