MODEL 1
REMARK VINA RESULT:   -10.327      0.000      0.000
REMARK INTER + INTRA:         -14.969
REMARK INTER:                 -13.346
REMARK INTRA:                  -1.623
REMARK UNBOUND:                -1.623
REMARK  Name = 15d.sdf
REMARK  5 active torsions:
REMARK  status: ('A' for Active; 'I' for Inactive)
REMARK    1  A    between atoms: C_9  and  C_10
REMARK    2  A    between atoms: C_10  and  O_11
REMARK    3  A    between atoms: O_11  and  C_12
REMARK    4  A    between atoms: C_12  and  C_13
REMARK    5  A    between atoms: C_15  and  C_16
REMARK                            x       y       z     vdW  Elec       q    Type
REMARK                         _______ _______ _______ _____ _____    ______ ____
ROOT
ATOM      1  C   UNL     1     -16.628  10.880  25.179  0.00  0.00    -0.061 A 
ATOM      2  C   UNL     1     -16.872   9.600  25.659  0.00  0.00    -0.060 A 
ATOM      3  C   UNL     1     -15.818   8.755  26.019  0.00  0.00    -0.037 A 
ATOM      4  C   UNL     1     -14.498   9.226  25.878  0.00  0.00    +0.057 A 
ATOM      5  C   UNL     1     -14.235  10.517  25.398  0.00  0.00    +0.007 A 
ATOM      6  C   UNL     1     -15.317  11.347  25.048  0.00  0.00    -0.052 A 
ATOM      7  N   UNL     1     -13.277   8.639  26.213  0.00  0.00    -0.283 N 
ATOM      8  C   UNL     1     -12.271   9.530  25.864  0.00  0.00    +0.020 A 
ATOM      9  C   UNL     1     -12.820  10.703  25.391  0.00  0.00    +0.015 A 
ATOM     10  C   UNL     1     -13.072   7.376  26.826  0.00  0.00    +0.263 C 
ATOM     11  O   UNL     1     -13.942   6.518  26.706  0.00  0.00    -0.267 OA
ENDROOT
BRANCH  10  12
ATOM     12  C   UNL     1     -11.853   7.050  27.613  0.00  0.00    +0.040 A 
ATOM     13  C   UNL     1     -11.814   7.313  28.990  0.00  0.00    -0.049 A 
ATOM     14  C   UNL     1     -10.651   7.065  29.715  0.00  0.00    -0.061 A 
ATOM     15  C   UNL     1      -9.538   6.522  29.078  0.00  0.00    -0.062 A 
ATOM     16  C   UNL     1      -9.594   6.201  27.720  0.00  0.00    -0.061 A 
ATOM     17  C   UNL     1     -10.754   6.456  26.985  0.00  0.00    -0.049 A 
ENDBRANCH  10  12
BRANCH   9  18
ATOM     18  C   UNL     1     -12.074  11.938  24.988  0.00  0.00    +0.120 C 
BRANCH  18  19
ATOM     19  O   UNL     1     -11.272  11.717  23.816  0.00  0.00    -0.456 OA
BRANCH  19  20
ATOM     20  C   UNL     1      -9.949  11.968  23.946  0.00  0.00    +0.339 C 
ATOM     21  O   UNL     1      -9.379  13.008  23.661  0.00  0.00    -0.245 OA
BRANCH  20  22
ATOM     22  C   UNL     1      -9.231  10.777  24.482  0.00  0.00    +0.059 A 
ATOM     23  C   UNL     1      -9.103   9.651  23.655  0.00  0.00    -0.048 A 
ATOM     24  C   UNL     1      -8.463   8.501  24.121  0.00  0.00    -0.061 A 
ATOM     25  C   UNL     1      -7.938   8.470  25.412  0.00  0.00    -0.062 A 
ATOM     26  C   UNL     1      -8.045   9.591  26.235  0.00  0.00    -0.061 A 
ATOM     27  C   UNL     1      -8.689  10.743  25.773  0.00  0.00    -0.048 A 
ENDBRANCH  20  22
ENDBRANCH  19  20
ENDBRANCH  18  19
ENDBRANCH   9  18
TORSDOF 5
ENDMDL
