MODEL 1
REMARK VINA RESULT:    -9.062      0.000      0.000
REMARK INTER + INTRA:         -11.498
REMARK INTER:                 -11.181
REMARK INTRA:                  -0.318
REMARK UNBOUND:                -0.318
REMARK  Name = 16.sdf
REMARK  4 active torsions:
REMARK  status: ('A' for Active; 'I' for Inactive)
REMARK    1  A    between atoms: C_9  and  C_10
REMARK    2  A    between atoms: C_10  and  O_11
REMARK    3  A    between atoms: O_11  and  C_12
REMARK    4  A    between atoms: C_12  and  C_13
REMARK                            x       y       z     vdW  Elec       q    Type
REMARK                         _______ _______ _______ _____ _____    ______ ____
ROOT
ATOM      1  C   UNL     1     -10.059  12.867  23.465  0.00  0.00    -0.061 A 
ATOM      2  C   UNL     1      -9.034  12.791  24.404  0.00  0.00    -0.060 A 
ATOM      3  C   UNL     1      -9.158  11.987  25.539  0.00  0.00    -0.038 A 
ATOM      4  C   UNL     1     -10.347  11.264  25.696  0.00  0.00    +0.047 A 
ATOM      5  C   UNL     1     -11.394  11.312  24.773  0.00  0.00    +0.005 A 
ATOM      6  C   UNL     1     -11.240  12.135  23.636  0.00  0.00    -0.052 A 
ATOM      7  N   UNL     1     -10.733  10.410  26.702  0.00  0.00    -0.360 N 
ATOM      8  C   UNL     1     -11.985   9.923  26.451  0.00  0.00    +0.008 A 
ATOM      9  C   UNL     1     -12.432  10.447  25.253  0.00  0.00    +0.003 A 
ATOM     10  H   UNL     1     -10.188  10.183  27.489  0.00  0.00    +0.000 HD
ENDROOT
BRANCH   9  11
ATOM     11  C   UNL     1     -13.750  10.171  24.599  0.00  0.00    +0.075 C 
BRANCH  11  12
ATOM     12  O   UNL     1     -14.817  10.822  25.294  0.00  0.00    -0.371 OA
BRANCH  12  13
ATOM     13  C   UNL     1     -15.668   9.896  25.963  0.00  0.00    +0.073 C 
BRANCH  13  14
ATOM     14  C   UNL     1     -17.036   9.887  25.317  0.00  0.00    -0.022 A 
ATOM     15  C   UNL     1     -17.816   8.721  25.341  0.00  0.00    -0.055 A 
ATOM     16  C   UNL     1     -19.092   8.707  24.769  0.00  0.00    -0.043 A 
ATOM     17  C   UNL     1     -19.601   9.863  24.180  0.00  0.00    +0.041 A 
ATOM     18  C   UNL     1     -18.849  11.034  24.165  0.00  0.00    -0.043 A 
ATOM     19  C   UNL     1     -17.574  11.047  24.737  0.00  0.00    -0.055 A 
ATOM     20 CL   UNL     1     -21.169   9.844  23.472  0.00  0.00    -0.084 Cl
ENDBRANCH  13  14
ENDBRANCH  12  13
ENDBRANCH  11  12
ENDBRANCH   9  11
TORSDOF 4
ENDMDL
