MODEL 1
REMARK VINA RESULT:    -9.464      0.000      0.000
REMARK INTER + INTRA:         -16.508
REMARK INTER:                 -13.890
REMARK INTRA:                  -2.618
REMARK UNBOUND:                -2.618
REMARK  Name = 21f.sdf
REMARK  8 active torsions:
REMARK  status: ('A' for Active; 'I' for Inactive)
REMARK    1  A    between atoms: N_7  and  C_22
REMARK    2  A    between atoms: C_9  and  C_10
REMARK    3  A    between atoms: C_10  and  O_11
REMARK    4  A    between atoms: O_11  and  C_12
REMARK    5  A    between atoms: C_12  and  C_13
REMARK    6  A    between atoms: C_13  and  C_14
REMARK    7  A    between atoms: C_22  and  C_23
REMARK    8  A    between atoms: C_23  and  C_24
REMARK                            x       y       z     vdW  Elec       q    Type
REMARK                         _______ _______ _______ _____ _____    ______ ____
ROOT
ATOM      1  C   UNL     1     -11.520   8.791  28.727  0.00  0.00    -0.061 A 
ATOM      2  C   UNL     1     -12.412   7.789  28.354  0.00  0.00    -0.060 A 
ATOM      3  C   UNL     1     -13.220   7.920  27.216  0.00  0.00    -0.038 A 
ATOM      4  C   UNL     1     -13.081   9.083  26.443  0.00  0.00    +0.050 A 
ATOM      5  C   UNL     1     -12.108  10.041  26.738  0.00  0.00    +0.005 A 
ATOM      6  C   UNL     1     -11.347   9.912  27.917  0.00  0.00    -0.052 A 
ATOM      7  N   UNL     1     -13.763   9.545  25.333  0.00  0.00    -0.339 N 
ATOM      8  C   UNL     1     -13.103  10.625  24.796  0.00  0.00    +0.012 A 
ATOM      9  C   UNL     1     -12.037  10.926  25.620  0.00  0.00    +0.003 A 
ENDROOT
BRANCH   9  10
ATOM     10  C   UNL     1     -10.924  11.879  25.350  0.00  0.00    +0.075 C 
BRANCH  10  11
ATOM     11  O   UNL     1     -10.473  11.826  23.985  0.00  0.00    -0.367 OA
BRANCH  11  12
ATOM     12  C   UNL     1      -9.111  11.424  23.860  0.00  0.00    +0.111 C 
BRANCH  12  13
ATOM     13  C   UNL     1      -8.965   9.931  23.589  0.00  0.00    +0.189 C 
ATOM     14  O   UNL     1      -8.740   9.500  22.458  0.00  0.00    -0.290 OA
BRANCH  13  15
ATOM     15  C   UNL     1      -9.007   8.977  24.736  0.00  0.00    +0.020 A 
ATOM     16  C   UNL     1      -8.127   9.068  25.821  0.00  0.00    -0.050 A 
ATOM     17  C   UNL     1      -8.176   8.121  26.848  0.00  0.00    -0.047 A 
ATOM     18  C   UNL     1      -9.097   7.078  26.787  0.00  0.00    +0.018 A 
ATOM     19  C   UNL     1      -9.983   6.979  25.715  0.00  0.00    -0.047 A 
ATOM     20  C   UNL     1      -9.936   7.929  24.693  0.00  0.00    -0.050 A 
ATOM     21 BR   UNL     1      -9.138   5.783  28.161  0.00  0.00    -0.050 Br
ENDBRANCH  13  15
ENDBRANCH  12  13
ENDBRANCH  11  12
ENDBRANCH  10  11
ENDBRANCH   9  10
BRANCH   7  22
ATOM     22  C   UNL     1     -15.095   9.118  24.913  0.00  0.00    +0.086 C 
BRANCH  22  23
ATOM     23  C   UNL     1     -16.239   9.699  25.712  0.00  0.00    +0.183 C 
ATOM     24  O   UNL     1     -16.113  10.174  26.838  0.00  0.00    -0.290 OA
BRANCH  23  25
ATOM     25  C   UNL     1     -17.599   9.698  25.076  0.00  0.00    +0.019 A 
ATOM     26  C   UNL     1     -18.182  10.854  24.536  0.00  0.00    -0.050 A 
ATOM     27  C   UNL     1     -19.485  10.817  24.023  0.00  0.00    -0.047 A 
ATOM     28  C   UNL     1     -20.205   9.624  24.042  0.00  0.00    +0.018 A 
ATOM     29  C   UNL     1     -19.624   8.459  24.536  0.00  0.00    -0.047 A 
ATOM     30  C   UNL     1     -18.322   8.495  25.046  0.00  0.00    -0.050 A 
ATOM     31 BR   UNL     1     -21.991   9.596  23.423  0.00  0.00    -0.050 Br
ENDBRANCH  23  25
ENDBRANCH  22  23
ENDBRANCH   7  22
TORSDOF 8
ENDMDL
