MODEL 1
REMARK VINA RESULT:   -11.288      0.000      0.000
REMARK INTER + INTRA:         -15.980
REMARK INTER:                 -15.248
REMARK INTRA:                  -0.732
REMARK UNBOUND:                -0.732
REMARK  Name = 22c.sdf
REMARK  7 active torsions:
REMARK  status: ('A' for Active; 'I' for Inactive)
REMARK    1  A    between atoms: N_7  and  C_12
REMARK    2  A    between atoms: C_9  and  C_10
REMARK    3  A    between atoms: N_11  and  N_19
REMARK    4  A    between atoms: C_12  and  C_13
REMARK    5  A    between atoms: C_20  and  C_22
REMARK    6  A    between atoms: C_25  and  O_29
REMARK    7  A    between atoms: O_29  and  C_30
REMARK                            x       y       z     vdW  Elec       q    Type
REMARK                         _______ _______ _______ _____ _____    ______ ____
ROOT
ATOM      1  C   UNL     1     -10.131  12.898  23.448  0.00  0.00    -0.061 A 
ATOM      2  C   UNL     1      -8.943  12.481  24.028  0.00  0.00    -0.060 A 
ATOM      3  C   UNL     1      -8.914  11.411  24.935  0.00  0.00    -0.038 A 
ATOM      4  C   UNL     1     -10.125  10.776  25.260  0.00  0.00    +0.050 A 
ATOM      5  C   UNL     1     -11.326  11.141  24.634  0.00  0.00    +0.009 A 
ATOM      6  C   UNL     1     -11.324  12.225  23.726  0.00  0.00    -0.052 A 
ATOM      7  N   UNL     1     -10.433   9.771  26.163  0.00  0.00    -0.342 N 
ATOM      8  C   UNL     1     -11.761   9.438  26.044  0.00  0.00    +0.015 A 
ATOM      9  C   UNL     1     -12.344  10.249  25.091  0.00  0.00    +0.020 A 
ENDROOT
BRANCH   9  10
ATOM     10  C   UNL     1     -13.726  10.198  24.654  0.00  0.00    +0.055 C 
ATOM     11  N   UNL     1     -14.646  10.775  25.352  0.00  0.00    -0.187 NA
BRANCH  11  12
ATOM     12  N   UNL     1     -15.928  10.667  24.873  0.00  0.00    -0.203 N 
ATOM     13  C   UNL     1     -16.772   9.704  25.400  0.00  0.00    +0.263 C 
ATOM     14  O   UNL     1     -16.476   8.919  26.303  0.00  0.00    -0.268 OA
ATOM     15  H   UNL     1     -16.243  11.269  24.160  0.00  0.00    +0.000 HD
BRANCH  13  16
ATOM     16  C   UNL     1     -18.158   9.659  24.841  0.00  0.00    +0.039 A 
ATOM     17  C   UNL     1     -18.783  10.775  24.275  0.00  0.00    -0.046 A 
ATOM     18  C   UNL     1     -20.093  10.670  23.790  0.00  0.00    -0.019 A 
ATOM     19  C   UNL     1     -20.782   9.452  23.838  0.00  0.00    +0.120 A 
ATOM     20  C   UNL     1     -20.153   8.333  24.377  0.00  0.00    -0.019 A 
ATOM     21  C   UNL     1     -18.845   8.436  24.872  0.00  0.00    -0.046 A 
BRANCH  19  22
ATOM     22  O   UNL     1     -22.073   9.497  23.390  0.00  0.00    -0.495 OA
ATOM     23  C   UNL     1     -23.022   8.713  24.104  0.00  0.00    +0.079 C 
ENDBRANCH  19  22
ENDBRANCH  13  16
ENDBRANCH  11  12
ENDBRANCH   9  10
BRANCH   7  24
ATOM     24  C   UNL     1      -9.562   9.221  27.208  0.00  0.00    +0.048 C 
BRANCH  24  25
ATOM     25  C   UNL     1      -9.966   7.821  27.604  0.00  0.00    -0.028 A 
ATOM     26  C   UNL     1      -9.673   6.736  26.765  0.00  0.00    -0.055 A 
ATOM     27  C   UNL     1     -10.204   5.472  27.030  0.00  0.00    -0.043 A 
ATOM     28  C   UNL     1     -11.005   5.279  28.152  0.00  0.00    +0.041 A 
ATOM     29  C   UNL     1     -11.220   6.321  29.051  0.00  0.00    -0.043 A 
ATOM     30  C   UNL     1     -10.701   7.589  28.779  0.00  0.00    -0.055 A 
ATOM     31 CL   UNL     1     -11.768   3.758  28.403  0.00  0.00    -0.084 Cl
ENDBRANCH  24  25
ENDBRANCH   7  24
TORSDOF 6
ENDMDL
