MODEL 1
REMARK VINA RESULT:   -11.824      0.000      0.000
REMARK INTER + INTRA:         -16.352
REMARK INTER:                 -15.626
REMARK INTRA:                  -0.726
REMARK UNBOUND:                -0.726
REMARK  Name = 24c.sdf
REMARK  6 active torsions:
REMARK  status: ('A' for Active; 'I' for Inactive)
REMARK    1  A    between atoms: N_7  and  C_10
REMARK    2  A    between atoms: C_9  and  C_18
REMARK    3  A    between atoms: C_10  and  C_11
REMARK    4  A    between atoms: N_19  and  N_20
REMARK    5  A    between atoms: C_21  and  C_23
REMARK    6  A    between atoms: C_26  and  O_29
REMARK                            x       y       z     vdW  Elec       q    Type
REMARK                         _______ _______ _______ _____ _____    ______ ____
ROOT
ATOM      1  C   UNL     1     -10.171  12.860  23.432  0.00  0.00    -0.061 A 
ATOM      2  C   UNL     1      -9.003  12.454  24.065  0.00  0.00    -0.060 A 
ATOM      3  C   UNL     1      -9.018  11.417  25.003  0.00  0.00    -0.038 A 
ATOM      4  C   UNL     1     -10.243  10.788  25.285  0.00  0.00    +0.050 A 
ATOM      5  C   UNL     1     -11.423  11.148  24.624  0.00  0.00    +0.009 A 
ATOM      6  C   UNL     1     -11.381  12.211  23.695  0.00  0.00    -0.052 A 
ATOM      7  N   UNL     1     -10.575   9.785  26.180  0.00  0.00    -0.342 N 
ATOM      8  C   UNL     1     -11.899   9.459  26.041  0.00  0.00    +0.015 A 
ATOM      9  C   UNL     1     -12.461  10.276  25.078  0.00  0.00    +0.020 A 
ENDROOT
BRANCH   9  10
ATOM     10  C   UNL     1     -13.838  10.239  24.625  0.00  0.00    +0.055 C 
ATOM     11  N   UNL     1     -14.782  10.665  25.398  0.00  0.00    -0.187 NA
BRANCH  11  12
ATOM     12  N   UNL     1     -16.049  10.587  24.891  0.00  0.00    -0.203 N 
ATOM     13  C   UNL     1     -16.913   9.609  25.357  0.00  0.00    +0.263 C 
ATOM     14  O   UNL     1     -16.648   8.778  26.220  0.00  0.00    -0.268 OA
ATOM     15  H   UNL     1     -16.346  11.222  24.198  0.00  0.00    +0.000 HD
BRANCH  13  16
ATOM     16  C   UNL     1     -18.283   9.618  24.762  0.00  0.00    +0.039 A 
ATOM     17  C   UNL     1     -18.827  10.755  24.142  0.00  0.00    -0.046 A 
ATOM     18  C   UNL     1     -20.123  10.713  23.612  0.00  0.00    -0.019 A 
ATOM     19  C   UNL     1     -20.861   9.536  23.694  0.00  0.00    +0.117 A 
ATOM     20  C   UNL     1     -20.323   8.397  24.279  0.00  0.00    -0.019 A 
ATOM     21  C   UNL     1     -19.033   8.436  24.810  0.00  0.00    -0.046 A 
BRANCH  19  22
ATOM     22  O   UNL     1     -22.130   9.456  23.202  0.00  0.00    -0.507 OA
ATOM     23  H   UNL     1     -22.798   9.024  23.697  0.00  0.00    +0.000 HD
ENDBRANCH  19  22
ENDBRANCH  13  16
ENDBRANCH  11  12
ENDBRANCH   9  10
BRANCH   7  24
ATOM     24  C   UNL     1      -9.701   9.215  27.204  0.00  0.00    +0.048 C 
BRANCH  24  25
ATOM     25  C   UNL     1     -10.086   7.796  27.539  0.00  0.00    -0.028 A 
ATOM     26  C   UNL     1      -9.845   6.757  26.628  0.00  0.00    -0.055 A 
ATOM     27  C   UNL     1     -10.295   5.462  26.893  0.00  0.00    -0.043 A 
ATOM     28  C   UNL     1     -10.977   5.194  28.078  0.00  0.00    +0.041 A 
ATOM     29  C   UNL     1     -11.179   6.203  29.017  0.00  0.00    -0.043 A 
ATOM     30  C   UNL     1     -10.734   7.499  28.749  0.00  0.00    -0.055 A 
ATOM     31 CL   UNL     1     -11.591   3.614  28.371  0.00  0.00    -0.084 Cl
ENDBRANCH  24  25
ENDBRANCH   7  24
TORSDOF 6
ENDMDL
