MODEL 1
REMARK VINA RESULT:    -9.278      0.000      0.000
REMARK INTER + INTRA:         -12.099
REMARK INTER:                 -11.448
REMARK INTRA:                  -0.651
REMARK UNBOUND:                -0.651
REMARK  Name = 2a.sdf
REMARK  4 active torsions:
REMARK  status: ('A' for Active; 'I' for Inactive)
REMARK    1  A    between atoms: N_7  and  C_12
REMARK    2  A    between atoms: C_9  and  C_10
REMARK    3  A    between atoms: C_11  and  C_20
REMARK    4  A    between atoms: C_12  and  C_13
REMARK                            x       y       z     vdW  Elec       q    Type
REMARK                         _______ _______ _______ _____ _____    ______ ____
ROOT
ATOM      1  C   UNL     1     -11.525   7.501  26.742  0.00  0.00    -0.061 A 
ATOM      2  C   UNL     1     -12.760   7.037  27.162  0.00  0.00    -0.060 A 
ATOM      3  C   UNL     1     -13.922   7.795  26.958  0.00  0.00    -0.038 A 
ATOM      4  C   UNL     1     -13.818   9.087  26.405  0.00  0.00    +0.050 A 
ATOM      5  C   UNL     1     -12.579   9.546  25.924  0.00  0.00    +0.007 A 
ATOM      6  C   UNL     1     -11.431   8.729  26.086  0.00  0.00    -0.052 A 
ATOM      7  N   UNL     1     -14.740  10.107  26.207  0.00  0.00    -0.342 N 
ATOM      8  C   UNL     1     -14.124  11.142  25.522  0.00  0.00    +0.013 A 
ATOM      9  C   UNL     1     -12.805  10.815  25.311  0.00  0.00    +0.000 A 
ENDROOT
BRANCH   9  10
ATOM     10  C   UNL     1     -11.825  11.587  24.602  0.00  0.00    -0.046 C 
ATOM     11  C   UNL     1     -10.891  12.375  25.152  0.00  0.00    +0.023 C 
BRANCH  11  12
ATOM     12  C   UNL     1      -9.865  13.182  24.455  0.00  0.00    +0.330 C 
ATOM     13  O   UNL     1     -10.034  13.341  23.126  0.00  0.00    -0.478 OA
ATOM     14  O   UNL     1      -8.954  13.696  25.063  0.00  0.00    -0.246 OA
ENDBRANCH  11  12
ENDBRANCH   9  10
BRANCH   7  15
ATOM     15  C   UNL     1     -16.109  10.244  26.742  0.00  0.00    +0.048 C 
BRANCH  15  16
ATOM     16  C   UNL     1     -17.195  10.055  25.708  0.00  0.00    -0.028 A 
ATOM     17  C   UNL     1     -17.717  11.160  25.018  0.00  0.00    -0.056 A 
ATOM     18  C   UNL     1     -18.904  11.044  24.289  0.00  0.00    -0.047 A 
ATOM     19  C   UNL     1     -19.533   9.805  24.191  0.00  0.00    +0.018 A 
ATOM     20  C   UNL     1     -18.947   8.668  24.743  0.00  0.00    -0.047 A 
ATOM     21  C   UNL     1     -17.778   8.791  25.499  0.00  0.00    -0.056 A 
ATOM     22 BR   UNL     1     -21.248   9.683  23.405  0.00  0.00    -0.050 Br
ENDBRANCH  15  16
ENDBRANCH   7  15
TORSDOF 4
ENDMDL
