MODEL 1
REMARK VINA RESULT:    -7.487      0.000      0.000
REMARK INTER + INTRA:          -9.244
REMARK INTER:                  -9.018
REMARK INTRA:                  -0.226
REMARK UNBOUND:                -0.226
REMARK  Name = 3.sdf
REMARK  4 active torsions:
REMARK  status: ('A' for Active; 'I' for Inactive)
REMARK    1  A    between atoms: CG_9  and  CB_10
REMARK    2  A    between atoms: CB_10  and  CA_11
REMARK    3  A    between atoms: CA_11  and  C_12
REMARK    4  A    between atoms: CA_11  and  N_15
REMARK                            x       y       z     vdW  Elec       q    Type
REMARK                         _______ _______ _______ _____ _____    ______ ____
ROOT
ATOM      1  CZ3 TRP A   1     -16.710   9.101  25.915  0.00  0.00    -0.061 A 
ATOM      2  CH2 TRP A   1     -16.362  10.372  25.463  0.00  0.00    -0.060 A 
ATOM      3  CZ2 TRP A   1     -17.212  11.091  24.620  0.00  0.00    -0.038 A 
ATOM      4  CE2 TRP A   1     -18.427  10.496  24.261  0.00  0.00    +0.047 A 
ATOM      5  CD2 TRP A   1     -18.822   9.238  24.717  0.00  0.00    +0.003 A 
ATOM      6  CE3 TRP A   1     -17.935   8.524  25.552  0.00  0.00    -0.052 A 
ATOM      7  NE1 TRP A   1     -19.434  10.967  23.455  0.00  0.00    -0.360 N 
ATOM      8  CD1 TRP A   1     -20.472  10.078  23.425  0.00  0.00    +0.006 A 
ATOM      9  CG  TRP A   1     -20.141   8.986  24.204  0.00  0.00    -0.020 A 
ATOM     10  HE1 TRP A   1     -19.411  11.823  22.969  0.00  0.00    +0.000 HD
ENDROOT
BRANCH   9  11
ATOM     11  CB  TRP A   1     -21.005   7.796  24.516  0.00  0.00    -0.000 C 
BRANCH  11  12
ATOM     12  CA  TRP A   1     -22.205   8.074  25.433  0.00  0.00    +0.107 C 
BRANCH  12  13
ATOM     13  N   TRP A   1     -21.806   8.890  26.611  0.00  0.00    -0.318 N 
ATOM     14  H1  TRP A   1     -22.466   9.658  26.732  0.00  0.00    +0.000 HD
ATOM     15  H2  TRP A   1     -20.869   9.268  26.461  0.00  0.00    +0.000 HD
ATOM     16  H3  TRP A   1     -21.806   8.305  27.446  0.00  0.00    +0.000 HD
ENDBRANCH  12  13
BRANCH  12  17
ATOM     17  C   TRP A   1     -22.894   6.787  25.910  0.00  0.00    +0.322 C 
ATOM     18  O   TRP A   1     -23.142   6.754  27.243  0.00  0.00    -0.480 OA
ATOM     19  OXT TRP A   1     -23.286   5.905  25.158  0.00  0.00    -0.249 OA
ENDBRANCH  12  17
ENDBRANCH  11  12
ENDBRANCH   9  11
TORSDOF 4
ENDMDL
