MODEL 1
REMARK VINA RESULT:    -8.635      0.000      0.000
REMARK INTER + INTRA:         -10.937
REMARK INTER:                 -10.402
REMARK INTRA:                  -0.535
REMARK UNBOUND:                -0.535
REMARK  Name = 4c.sdf
REMARK  4 active torsions:
REMARK  status: ('A' for Active; 'I' for Inactive)
REMARK    1  A    between atoms: N_7  and  C_11
REMARK    2  A    between atoms: C_9  and  C_10
REMARK    3  A    between atoms: C_10  and  O_19
REMARK    4  A    between atoms: C_11  and  C_12
REMARK                            x       y       z     vdW  Elec       q    Type
REMARK                         _______ _______ _______ _____ _____    ______ ____
ROOT
ATOM      1  C   UNL     1      -8.560   8.580  23.806  0.00  0.00    -0.061 A 
ATOM      2  C   UNL     1      -9.297   7.751  24.645  0.00  0.00    -0.060 A 
ATOM      3  C   UNL     1     -10.418   8.227  25.328  0.00  0.00    -0.038 A 
ATOM      4  C   UNL     1     -10.794   9.569  25.136  0.00  0.00    +0.050 A 
ATOM      5  C   UNL     1     -10.093  10.410  24.267  0.00  0.00    +0.005 A 
ATOM      6  C   UNL     1      -8.950   9.909  23.608  0.00  0.00    -0.052 A 
ATOM      7  N   UNL     1     -11.809  10.325  25.695  0.00  0.00    -0.342 N 
ATOM      8  C   UNL     1     -11.801  11.585  25.157  0.00  0.00    +0.011 A 
ATOM      9  C   UNL     1     -10.752  11.681  24.261  0.00  0.00    +0.003 A 
ENDROOT
BRANCH   9  10
ATOM     10  C   UNL     1     -10.366  12.872  23.453  0.00  0.00    +0.071 C 
BRANCH  10  11
ATOM     11  O   UNL     1     -10.012  13.987  24.271  0.00  0.00    -0.390 OA
ATOM     12  H   UNL     1      -9.248  13.754  24.822  0.00  0.00    +0.000 HD
ENDBRANCH  10  11
ENDBRANCH   9  10
BRANCH   7  13
ATOM     13  C   UNL     1     -12.694   9.904  26.780  0.00  0.00    +0.048 C 
BRANCH  13  14
ATOM     14  C   UNL     1     -14.103   9.671  26.293  0.00  0.00    -0.028 A 
ATOM     15  C   UNL     1     -15.201  10.094  27.058  0.00  0.00    -0.055 A 
ATOM     16  C   UNL     1     -16.505   9.811  26.648  0.00  0.00    -0.043 A 
ATOM     17  C   UNL     1     -16.721   9.111  25.464  0.00  0.00    +0.041 A 
ATOM     18  C   UNL     1     -15.645   8.715  24.674  0.00  0.00    -0.043 A 
ATOM     19  C   UNL     1     -14.341   8.995  25.086  0.00  0.00    -0.055 A 
ATOM     20 CL   UNL     1     -18.326   8.721  24.984  0.00  0.00    -0.084 Cl
ENDBRANCH  13  14
ENDBRANCH   7  13
TORSDOF 4
ENDMDL
