MODEL 1
REMARK VINA RESULT:    -7.391      0.000      0.000
REMARK INTER + INTRA:          -8.871
REMARK INTER:                  -8.687
REMARK INTRA:                  -0.184
REMARK UNBOUND:                -0.184
REMARK  Name = 5.sdf
REMARK  4 active torsions:
REMARK  status: ('A' for Active; 'I' for Inactive)
REMARK    1  A    between atoms: C_9  and  C_10
REMARK    2  A    between atoms: C_11  and  C_12
REMARK    3  A    between atoms: C_12  and  O_13
REMARK    4  A    between atoms: O_13  and  C_15
REMARK                            x       y       z     vdW  Elec       q    Type
REMARK                         _______ _______ _______ _____ _____    ______ ____
ROOT
ATOM      1  C   UNL     1      -9.920  12.940  23.429  0.00  0.00    -0.061 A 
ATOM      2  C   UNL     1      -8.902  12.909  24.378  0.00  0.00    -0.060 A 
ATOM      3  C   UNL     1      -9.027  12.124  25.524  0.00  0.00    -0.038 A 
ATOM      4  C   UNL     1     -10.203  11.383  25.681  0.00  0.00    +0.047 A 
ATOM      5  C   UNL     1     -11.252  11.383  24.753  0.00  0.00    +0.007 A 
ATOM      6  C   UNL     1     -11.094  12.187  23.602  0.00  0.00    -0.052 A 
ATOM      7  N   UNL     1     -10.568  10.540  26.703  0.00  0.00    -0.360 N 
ATOM      8  C   UNL     1     -11.808  10.016  26.466  0.00  0.00    +0.010 A 
ATOM      9  C   UNL     1     -12.277  10.509  25.263  0.00  0.00    +0.000 A 
ATOM     10  H   UNL     1     -10.016  10.343  27.494  0.00  0.00    +0.000 HD
ENDROOT
BRANCH   9  11
ATOM     11  C   UNL     1     -13.558  10.176  24.683  0.00  0.00    -0.046 C 
ATOM     12  C   UNL     1     -14.741  10.457  25.269  0.00  0.00    +0.023 C 
BRANCH  12  13
ATOM     13  C   UNL     1     -16.121  10.190  24.819  0.00  0.00    +0.332 C 
ATOM     14  O   UNL     1     -16.459   9.061  24.487  0.00  0.00    -0.246 OA
BRANCH  13  15
ATOM     15  O   UNL     1     -16.925  11.280  24.814  0.00  0.00    -0.465 OA
ATOM     16  C   UNL     1     -18.277  10.965  24.454  0.00  0.00    +0.082 C 
ENDBRANCH  13  15
ENDBRANCH  12  13
ENDBRANCH   9  11
TORSDOF 3
ENDMDL
