MODEL 1
REMARK VINA RESULT:    -9.184      0.000      0.000
REMARK INTER + INTRA:         -12.460
REMARK INTER:                 -11.868
REMARK INTRA:                  -0.592
REMARK UNBOUND:                -0.592
REMARK  Name = 5c.sdf
REMARK  6 active torsions:
REMARK  status: ('A' for Active; 'I' for Inactive)
REMARK    1  A    between atoms: N_7  and  C_12
REMARK    2  A    between atoms: C_9  and  C_10
REMARK    3  A    between atoms: C_11  and  C_20
REMARK    4  A    between atoms: C_12  and  C_13
REMARK    5  A    between atoms: C_20  and  O_21
REMARK    6  A    between atoms: O_21  and  C_23
REMARK                            x       y       z     vdW  Elec       q    Type
REMARK                         _______ _______ _______ _____ _____    ______ ____
ROOT
ATOM      1  C   UNL     1     -10.059  12.953  23.461  0.00  0.00    -0.061 A 
ATOM      2  C   UNL     1      -8.870  12.440  23.965  0.00  0.00    -0.060 A 
ATOM      3  C   UNL     1      -8.877  11.455  24.957  0.00  0.00    -0.038 A 
ATOM      4  C   UNL     1     -10.117  10.989  25.430  0.00  0.00    +0.050 A 
ATOM      5  C   UNL     1     -11.328  11.464  24.908  0.00  0.00    +0.007 A 
ATOM      6  C   UNL     1     -11.287  12.468  23.917  0.00  0.00    -0.052 A 
ATOM      7  N   UNL     1     -10.436  10.068  26.413  0.00  0.00    -0.342 N 
ATOM      8  C   UNL     1     -11.803   9.911  26.481  0.00  0.00    +0.013 A 
ATOM      9  C   UNL     1     -12.385  10.752  25.557  0.00  0.00    +0.000 A 
ENDROOT
BRANCH   9  10
ATOM     10  C   UNL     1     -13.788  10.890  25.291  0.00  0.00    -0.046 C 
ATOM     11  C   UNL     1     -14.655   9.878  25.118  0.00  0.00    +0.023 C 
BRANCH  11  12
ATOM     12  C   UNL     1     -16.096  10.025  24.829  0.00  0.00    +0.332 C 
ATOM     13  O   UNL     1     -16.635  11.123  24.819  0.00  0.00    -0.246 OA
BRANCH  12  14
ATOM     14  O   UNL     1     -16.709   8.842  24.586  0.00  0.00    -0.465 OA
ATOM     15  C   UNL     1     -18.083   8.816  24.984  0.00  0.00    +0.082 C 
ENDBRANCH  12  14
ENDBRANCH  11  12
ENDBRANCH   9  10
BRANCH   7  16
ATOM     16  C   UNL     1      -9.491   9.402  27.309  0.00  0.00    +0.048 C 
BRANCH  16  17
ATOM     17  C   UNL     1      -9.912   7.981  27.592  0.00  0.00    -0.028 A 
ATOM     18  C   UNL     1      -9.638   6.960  26.669  0.00  0.00    -0.055 A 
ATOM     19  C   UNL     1     -10.163   5.679  26.852  0.00  0.00    -0.043 A 
ATOM     20  C   UNL     1     -10.949   5.406  27.968  0.00  0.00    +0.041 A 
ATOM     21  C   UNL     1     -11.173   6.390  28.929  0.00  0.00    -0.043 A 
ATOM     22  C   UNL     1     -10.654   7.672  28.744  0.00  0.00    -0.055 A 
ATOM     23 CL   UNL     1     -11.671   3.855  28.147  0.00  0.00    -0.084 Cl
ENDBRANCH  16  17
ENDBRANCH   7  16
TORSDOF 5
ENDMDL
