MODEL 1
REMARK VINA RESULT:   -10.004      0.000      0.000
REMARK INTER + INTRA:         -12.062
REMARK INTER:                 -11.759
REMARK INTRA:                  -0.303
REMARK UNBOUND:                -0.303
REMARK  Name = 8.sdf
REMARK  3 active torsions:
REMARK  status: ('A' for Active; 'I' for Inactive)
REMARK    1  A    between atoms: C_9  and  C_10
REMARK    2  A    between atoms: N_11  and  N_12
REMARK    3  A    between atoms: C_13  and  C_15
REMARK                            x       y       z     vdW  Elec       q    Type
REMARK                         _______ _______ _______ _____ _____    ______ ____
ROOT
ATOM      1  C   UNL     1     -13.479  10.392  25.134  0.00  0.00    +0.055 C 
ATOM      2  N   UNL     1     -14.422  11.141  25.602  0.00  0.00    -0.187 NA
ENDROOT
BRANCH   1  11
ATOM      3  C   UNL     1      -9.934  12.984  23.444  0.00  0.00    -0.061 A 
ATOM      4  C   UNL     1      -8.803  12.905  24.253  0.00  0.00    -0.060 A 
ATOM      5  C   UNL     1      -8.800  12.116  25.406  0.00  0.00    -0.038 A 
ATOM      6  C   UNL     1      -9.973  11.418  25.719  0.00  0.00    +0.047 A 
ATOM      7  C   UNL     1     -11.126  11.476  24.933  0.00  0.00    +0.008 A 
ATOM      8  C   UNL     1     -11.099  12.275  23.769  0.00  0.00    -0.052 A 
ATOM      9  N   UNL     1     -10.244  10.585  26.779  0.00  0.00    -0.360 N 
ATOM     10  C   UNL     1     -11.525  10.124  26.696  0.00  0.00    +0.011 A 
ATOM     11  C   UNL     1     -12.116  10.651  25.561  0.00  0.00    +0.020 A 
ATOM     12  H   UNL     1      -9.605  10.354  27.492  0.00  0.00    +0.000 HD
ENDBRANCH   1  11
BRANCH   2  13
ATOM     13  N   UNL     1     -15.699  10.894  25.189  0.00  0.00    -0.203 N 
ATOM     14  C   UNL     1     -16.555  10.234  26.063  0.00  0.00    +0.263 C 
ATOM     15  O   UNL     1     -16.251   9.865  27.195  0.00  0.00    -0.268 OA
ATOM     16  H   UNL     1     -16.006  11.176  24.297  0.00  0.00    +0.000 HD
BRANCH  14  17
ATOM     17  C   UNL     1     -17.944   9.984  25.586  0.00  0.00    +0.038 A 
ATOM     18  C   UNL     1     -18.958  10.946  25.671  0.00  0.00    -0.049 A 
ATOM     19  C   UNL     1     -20.231  10.667  25.158  0.00  0.00    -0.047 A 
ATOM     20  C   UNL     1     -20.489   9.434  24.560  0.00  0.00    +0.018 A 
ATOM     21  C   UNL     1     -19.487   8.471  24.465  0.00  0.00    -0.047 A 
ATOM     22  C   UNL     1     -18.215   8.750  24.973  0.00  0.00    -0.049 A 
ATOM     23 BR   UNL     1     -22.203   9.073  23.852  0.00  0.00    -0.050 Br
ENDBRANCH  14  17
ENDBRANCH   2  13
TORSDOF 3
ENDMDL
