MODEL 1
REMARK VINA RESULT:   -10.756      0.000      0.000
REMARK INTER + INTRA:         -14.479
REMARK INTER:                 -13.899
REMARK INTRA:                  -0.579
REMARK UNBOUND:                -0.579
REMARK  Name = 8b.sdf
REMARK  5 active torsions:
REMARK  status: ('A' for Active; 'I' for Inactive)
REMARK    1  A    between atoms: N_7  and  C_12
REMARK    2  A    between atoms: C_9  and  C_10
REMARK    3  A    between atoms: N_11  and  N_19
REMARK    4  A    between atoms: C_12  and  C_13
REMARK    5  A    between atoms: C_20  and  C_22
REMARK                            x       y       z     vdW  Elec       q    Type
REMARK                         _______ _______ _______ _____ _____    ______ ____
ROOT
ATOM      1  C   UNL     1     -10.050  12.901  23.494  0.00  0.00    -0.061 A 
ATOM      2  C   UNL     1      -8.844  12.477  24.039  0.00  0.00    -0.060 A 
ATOM      3  C   UNL     1      -8.791  11.377  24.903  0.00  0.00    -0.038 A 
ATOM      4  C   UNL     1      -9.989  10.707  25.209  0.00  0.00    +0.050 A 
ATOM      5  C   UNL     1     -11.206  11.085  24.624  0.00  0.00    +0.009 A 
ATOM      6  C   UNL     1     -11.230  12.206  23.766  0.00  0.00    -0.052 A 
ATOM      7  N   UNL     1     -10.264   9.654  26.063  0.00  0.00    -0.342 N 
ATOM      8  C   UNL     1     -11.590   9.311  25.963  0.00  0.00    +0.015 A 
ATOM      9  C   UNL     1     -12.204  10.162  25.066  0.00  0.00    +0.020 A 
ENDROOT
BRANCH   9  10
ATOM     10  C   UNL     1     -13.595  10.116  24.664  0.00  0.00    +0.055 C 
ATOM     11  N   UNL     1     -14.490  10.725  25.375  0.00  0.00    -0.187 NA
BRANCH  11  12
ATOM     12  N   UNL     1     -15.777  10.618  24.936  0.00  0.00    -0.203 N 
ATOM     13  C   UNL     1     -16.604   9.636  25.474  0.00  0.00    +0.263 C 
ATOM     14  O   UNL     1     -16.280   8.839  26.344  0.00  0.00    -0.268 OA
ATOM     15  H   UNL     1     -16.119  11.231  24.245  0.00  0.00    +0.000 HD
BRANCH  13  16
ATOM     16  C   UNL     1     -18.001   9.612  24.950  0.00  0.00    +0.038 A 
ATOM     17  C   UNL     1     -18.609  10.734  24.372  0.00  0.00    -0.049 A 
ATOM     18  C   UNL     1     -19.928  10.659  23.911  0.00  0.00    -0.047 A 
ATOM     19  C   UNL     1     -20.634   9.461  24.018  0.00  0.00    +0.018 A 
ATOM     20  C   UNL     1     -20.031   8.331  24.564  0.00  0.00    -0.047 A 
ATOM     21  C   UNL     1     -18.713   8.406  25.026  0.00  0.00    -0.049 A 
ATOM     22 BR   UNL     1     -22.422   9.369  23.411  0.00  0.00    -0.050 Br
ENDBRANCH  13  16
ENDBRANCH  11  12
ENDBRANCH   9  10
BRANCH   7  23
ATOM     23  C   UNL     1      -9.352   9.057  27.037  0.00  0.00    +0.048 C 
BRANCH  23  24
ATOM     24  C   UNL     1      -9.896   7.775  27.612  0.00  0.00    -0.025 A 
ATOM     25  C   UNL     1      -9.685   6.554  26.966  0.00  0.00    -0.039 A 
ATOM     26  C   UNL     1     -10.270   5.412  27.489  0.00  0.00    +0.028 A 
ATOM     27  N   UNL     1     -11.020   5.398  28.609  0.00  0.00    -0.263 NA
ATOM     28  C   UNL     1     -11.193   6.581  29.236  0.00  0.00    +0.028 A 
ATOM     29  C   UNL     1     -10.656   7.777  28.787  0.00  0.00    -0.039 A 
ENDBRANCH  23  24
ENDBRANCH   7  23
TORSDOF 5
ENDMDL
