MODEL 1
REMARK VINA RESULT:   -11.133      0.000      0.000
REMARK INTER + INTRA:         -15.008
REMARK INTER:                 -14.388
REMARK INTRA:                  -0.621
REMARK UNBOUND:                -0.621
REMARK  Name = 8c.sdf
REMARK  5 active torsions:
REMARK  status: ('A' for Active; 'I' for Inactive)
REMARK    1  A    between atoms: N_7  and  C_12
REMARK    2  A    between atoms: C_9  and  C_10
REMARK    3  A    between atoms: N_11  and  N_20
REMARK    4  A    between atoms: C_12  and  C_13
REMARK    5  A    between atoms: C_21  and  C_23
REMARK                            x       y       z     vdW  Elec       q    Type
REMARK                         _______ _______ _______ _____ _____    ______ ____
ROOT
ATOM      1  C   UNL     1     -10.148  12.908  23.432  0.00  0.00    -0.061 A 
ATOM      2  C   UNL     1      -8.947  12.500  24.002  0.00  0.00    -0.060 A 
ATOM      3  C   UNL     1      -8.907  11.434  24.906  0.00  0.00    -0.038 A 
ATOM      4  C   UNL     1     -10.108  10.775  25.217  0.00  0.00    +0.050 A 
ATOM      5  C   UNL     1     -11.322  11.139  24.621  0.00  0.00    +0.009 A 
ATOM      6  C   UNL     1     -11.335  12.235  23.728  0.00  0.00    -0.052 A 
ATOM      7  N   UNL     1     -10.385   9.736  26.086  0.00  0.00    -0.342 N 
ATOM      8  C   UNL     1     -11.711   9.396  25.999  0.00  0.00    +0.015 A 
ATOM      9  C   UNL     1     -12.327  10.238  25.092  0.00  0.00    +0.020 A 
ENDROOT
BRANCH   9  10
ATOM     10  C   UNL     1     -13.721  10.198  24.703  0.00  0.00    +0.055 C 
ATOM     11  N   UNL     1     -14.612  10.782  25.437  0.00  0.00    -0.187 NA
BRANCH  11  12
ATOM     12  N   UNL     1     -15.903  10.685  24.998  0.00  0.00    -0.203 N 
ATOM     13  C   UNL     1     -16.705   9.650  25.463  0.00  0.00    +0.263 C 
ATOM     14  O   UNL     1     -16.360   8.795  26.273  0.00  0.00    -0.268 OA
ATOM     15  H   UNL     1     -16.260  11.340  24.357  0.00  0.00    +0.000 HD
BRANCH  13  16
ATOM     16  C   UNL     1     -18.103   9.633  24.942  0.00  0.00    +0.038 A 
ATOM     17  C   UNL     1     -18.729  10.778  24.425  0.00  0.00    -0.049 A 
ATOM     18  C   UNL     1     -20.044  10.707  23.953  0.00  0.00    -0.047 A 
ATOM     19  C   UNL     1     -20.731   9.494  23.989  0.00  0.00    +0.018 A 
ATOM     20  C   UNL     1     -20.113   8.345  24.481  0.00  0.00    -0.047 A 
ATOM     21  C   UNL     1     -18.797   8.417  24.952  0.00  0.00    -0.049 A 
ATOM     22 BR   UNL     1     -22.510   9.402  23.356  0.00  0.00    -0.050 Br
ENDBRANCH  13  16
ENDBRANCH  11  12
ENDBRANCH   9  10
BRANCH   7  23
ATOM     23  C   UNL     1      -9.455   9.137  27.042  0.00  0.00    +0.048 C 
BRANCH  23  24
ATOM     24  C   UNL     1      -9.921   7.776  27.496  0.00  0.00    -0.028 A 
ATOM     25  C   UNL     1      -9.680   6.639  26.709  0.00  0.00    -0.055 A 
ATOM     26  C   UNL     1     -10.197   5.396  27.079  0.00  0.00    -0.043 A 
ATOM     27  C   UNL     1     -10.950   5.280  28.246  0.00  0.00    +0.041 A 
ATOM     28  C   UNL     1     -11.159   6.388  29.063  0.00  0.00    -0.043 A 
ATOM     29  C   UNL     1     -10.644   7.632  28.690  0.00  0.00    -0.055 A 
ATOM     30 CL   UNL     1     -11.640   3.761  28.667  0.00  0.00    -0.084 Cl
ENDBRANCH  23  24
ENDBRANCH   7  23
TORSDOF 5
ENDMDL
