MODEL 1
REMARK VINA RESULT:    -9.215      0.000      0.000
REMARK INTER + INTRA:         -11.239
REMARK INTER:                 -10.831
REMARK INTRA:                  -0.408
REMARK UNBOUND:                -0.408
REMARK  Name = 9.sdf
REMARK  3 active torsions:
REMARK  status: ('A' for Active; 'I' for Inactive)
REMARK    1  A    between atoms: C_9  and  C_10
REMARK    2  A    between atoms: C_11  and  C_12
REMARK    3  A    between atoms: C_12  and  C_13
REMARK                            x       y       z     vdW  Elec       q    Type
REMARK                         _______ _______ _______ _____ _____    ______ ____
ROOT
ATOM      1  C   UNL     1     -20.325   7.655  24.579  0.00  0.00    -0.061 A 
ATOM      2  C   UNL     1     -21.308   8.472  24.033  0.00  0.00    -0.060 A 
ATOM      3  C   UNL     1     -21.075   9.834  23.826  0.00  0.00    -0.038 A 
ATOM      4  C   UNL     1     -19.818  10.343  24.178  0.00  0.00    +0.047 A 
ATOM      5  C   UNL     1     -18.798   9.551  24.713  0.00  0.00    +0.007 A 
ATOM      6  C   UNL     1     -19.074   8.180  24.927  0.00  0.00    -0.052 A 
ATOM      7  N   UNL     1     -19.334  11.629  24.096  0.00  0.00    -0.360 N 
ATOM      8  C   UNL     1     -18.047  11.684  24.563  0.00  0.00    +0.010 A 
ATOM      9  C   UNL     1     -17.670  10.410  24.926  0.00  0.00    +0.000 A 
ATOM     10  H   UNL     1     -19.840  12.399  23.751  0.00  0.00    +0.000 HD
ENDROOT
BRANCH   9  11
ATOM     11  C   UNL     1     -16.368  10.103  25.435  0.00  0.00    -0.049 C 
ATOM     12  C   UNL     1     -15.304  10.912  25.329  0.00  0.00    -0.014 C 
BRANCH  12  13
ATOM     13  C   UNL     1     -13.966  10.519  25.840  0.00  0.00    +0.186 C 
ATOM     14  O   UNL     1     -13.813   9.931  26.903  0.00  0.00    -0.287 OA
BRANCH  13  15
ATOM     15  C   UNL     1     -12.802  10.916  25.001  0.00  0.00    +0.022 A 
ATOM     16  C   UNL     1     -12.051  12.040  25.360  0.00  0.00    -0.051 A 
ATOM     17  C   UNL     1     -10.970  12.437  24.569  0.00  0.00    -0.061 A 
ATOM     18  C   UNL     1     -10.628  11.707  23.430  0.00  0.00    -0.062 A 
ATOM     19  C   UNL     1     -11.356  10.570  23.084  0.00  0.00    -0.061 A 
ATOM     20  C   UNL     1     -12.437  10.170  23.871  0.00  0.00    -0.051 A 
ENDBRANCH  13  15
ENDBRANCH  12  13
ENDBRANCH   9  11
TORSDOF 3
ENDMDL
