MODEL 1
REMARK VINA RESULT:   -10.445      0.000      0.000
REMARK INTER + INTRA:         -17.295
REMARK INTER:                 -15.330
REMARK INTRA:                  -1.965
REMARK UNBOUND:                -1.965
REMARK  Name = native.pdb
REMARK  11 active torsions:
REMARK  status: ('A' for Active; 'I' for Inactive)
REMARK    1  A    between atoms: C_1  and  C_2
REMARK    2  A    between atoms: C_2  and  C_25
REMARK    3  A    between atoms: O_3  and  C_4
REMARK    4  A    between atoms: O_3  and  C_6
REMARK    5  A    between atoms: C_4  and  C_5
REMARK    6  A    between atoms: C_5  and  N_26
REMARK    7  A    between atoms: C_11  and  C_12
REMARK    8  A    between atoms: C_12  and  C_13
REMARK    9  A    between atoms: C_23  and  C_25
REMARK   10  A    between atoms: N_26  and  C_27
REMARK   11  A    between atoms: N_26  and  C_28
REMARK                            x       y       z     vdW  Elec       q    Type
REMARK                         _______ _______ _______ _____ _____    ______ ____
ROOT
ATOM      1  C   UNL     1     -11.253   9.174  26.412  0.00  0.00    -0.007 C 
ATOM      2  C   UNL     1     -10.081   9.676  25.929  0.00  0.00    -0.032 C 
ENDROOT
BRANCH   1   8
ATOM      3  C   UNL     1     -15.118  10.634  25.207  0.00  0.00    +0.121 A 
ATOM      4  C   UNL     1     -14.568   9.493  24.621  0.00  0.00    -0.019 A 
ATOM      5  C   UNL     1     -13.300   9.046  25.002  0.00  0.00    -0.051 A 
ATOM      6  C   UNL     1     -13.111  10.877  26.559  0.00  0.00    -0.051 A 
ATOM      7  C   UNL     1     -14.383  11.324  26.175  0.00  0.00    -0.019 A 
ATOM      8  C   UNL     1     -12.562   9.733  25.973  0.00  0.00    -0.017 A 
BRANCH   3   9
ATOM      9  O   UNL     1     -16.355  11.159  24.920  0.00  0.00    -0.491 OA
BRANCH   9  10
ATOM     10  C   UNL     1     -17.456  10.261  25.098  0.00  0.00    +0.102 C 
BRANCH  10  11
ATOM     11  C   UNL     1     -18.710  10.809  24.401  0.00  0.00    +0.033 C 
BRANCH  11  12
ATOM     12  N   UNL     1     -19.541   9.759  23.774  0.00  0.00    -0.305 N 
ATOM     13  C   UNL     1     -19.497   8.499  24.518  0.00  0.00    -0.013 C 
ATOM     14  C   UNL     1     -20.928  10.216  23.659  0.00  0.00    -0.013 C 
ATOM     15  H   UNL     1     -19.156   9.584  22.846  0.00  0.00    +0.000 HD
ENDBRANCH  11  12
ENDBRANCH  10  11
ENDBRANCH   9  10
ENDBRANCH   3   9
ENDBRANCH   1   8
BRANCH   1  16
ATOM     16  C   UNL     1     -11.275   8.030  27.354  0.00  0.00    -0.017 A 
ATOM     17  C   UNL     1     -11.153   6.723  26.859  0.00  0.00    -0.054 A 
ATOM     18  C   UNL     1     -11.189   5.635  27.731  0.00  0.00    -0.061 A 
ATOM     19  C   UNL     1     -11.336   5.846  29.102  0.00  0.00    -0.062 A 
ATOM     20  C   UNL     1     -11.418   7.144  29.606  0.00  0.00    -0.061 A 
ATOM     21  C   UNL     1     -11.373   8.234  28.735  0.00  0.00    -0.054 A 
ENDBRANCH   1  16
BRANCH   2  26
ATOM     22  C   UNL     1     -10.570  12.110  23.051  0.00  0.00    -0.061 A 
ATOM     23  C   UNL     1      -9.984  13.264  23.568  0.00  0.00    -0.062 A 
ATOM     24  C   UNL     1      -9.446  13.254  24.854  0.00  0.00    -0.061 A 
ATOM     25  C   UNL     1      -9.497  12.089  25.621  0.00  0.00    -0.054 A 
ATOM     26  C   UNL     1     -10.085  10.922  25.110  0.00  0.00    -0.021 A 
ATOM     27  C   UNL     1     -10.619  10.941  23.818  0.00  0.00    -0.054 A 
ENDBRANCH   2  26
BRANCH   2  29
ATOM     28  C   UNL     1      -7.929   8.359  25.026  0.00  0.00    -0.061 C 
ATOM     29  C   UNL     1      -8.641   9.185  26.092  0.00  0.00    -0.029 C 
ENDBRANCH   2  29
TORSDOF 8
ENDMDL
