REMARK VINA RESULT:    -7.890      4.689      7.451
REMARK INTER + INTRA:         -10.519
REMARK INTER:                  -9.738
REMARK INTRA:                  -0.781
REMARK UNBOUND:                -0.784
REMARK  Name = 17a.sdf
REMARK  4 active torsions:
REMARK  status: ('A' for Active; 'I' for Inactive)
REMARK    1  A    between atoms: N_7  and  C_16
REMARK    2  A    between atoms: C_9  and  C_10
REMARK    3  A    between atoms: N_11  and  N_12
REMARK    4  A    between atoms: C_16  and  C_17
REMARK                            x       y       z     vdW  Elec       q    Type
REMARK                         _______ _______ _______ _____ _____    ______ ____
ROOT
ATOM      1  C   UNL     1     -50.250  -0.685  34.620  0.00  0.00    -0.061 A 
ATOM      2  C   UNL     1     -49.040  -1.084  35.174  0.00  0.00    -0.060 A 
ATOM      3  C   UNL     1     -48.536  -2.372  34.957  0.00  0.00    -0.038 A 
ATOM      4  C   UNL     1     -49.285  -3.258  34.163  0.00  0.00    +0.050 A 
ATOM      5  C   UNL     1     -50.479  -2.856  33.549  0.00  0.00    +0.009 A 
ATOM      6  C   UNL     1     -50.969  -1.554  33.797  0.00  0.00    -0.052 A 
ATOM      7  N   UNL     1     -49.090  -4.588  33.832  0.00  0.00    -0.342 N 
ATOM      8  C   UNL     1     -50.070  -4.994  32.961  0.00  0.00    +0.015 A 
ATOM      9  C   UNL     1     -50.944  -3.945  32.754  0.00  0.00    +0.020 A 
ENDROOT
BRANCH   9  10
ATOM     10  C   UNL     1     -52.101  -3.972  31.885  0.00  0.00    +0.055 C 
ATOM     11  N   UNL     1     -52.152  -4.842  30.930  0.00  0.00    -0.186 NA
BRANCH  11  12
ATOM     12  N   UNL     1     -53.269  -4.789  30.148  0.00  0.00    -0.191 N 
ATOM     13  C   UNL     1     -54.022  -5.905  29.889  0.00  0.00    +0.317 C 
ATOM     14  O   UNL     1     -54.992  -5.904  29.147  0.00  0.00    -0.251 OA
ATOM     15  N   UNL     1     -53.593  -7.023  30.531  0.00  0.00    -0.312 N 
ATOM     16  H   UNL     1     -53.542  -3.926  29.761  0.00  0.00    +0.000 HD
ATOM     17  H   UNL     1     -52.806  -6.981  31.119  0.00  0.00    +0.000 HD
ATOM     18  H   UNL     1     -54.070  -7.875  30.406  0.00  0.00    +0.000 HD
ENDBRANCH  11  12
ENDBRANCH   9  10
BRANCH   7  19
ATOM     19  C   UNL     1     -48.089  -5.495  34.395  0.00  0.00    +0.048 C 
BRANCH  19  20
ATOM     20  C   UNL     1     -46.901  -5.654  33.479  0.00  0.00    -0.028 A 
ATOM     21  C   UNL     1     -46.612  -6.902  32.907  0.00  0.00    -0.056 A 
ATOM     22  C   UNL     1     -45.433  -7.095  32.187  0.00  0.00    -0.047 A 
ATOM     23  C   UNL     1     -44.546  -6.036  32.016  0.00  0.00    +0.018 A 
ATOM     24  C   UNL     1     -44.856  -4.770  32.507  0.00  0.00    -0.047 A 
ATOM     25  C   UNL     1     -46.033  -4.579  33.235  0.00  0.00    -0.056 A 
ATOM     26 BR   UNL     1     -42.890  -6.332  31.155  0.00  0.00    -0.050 Br
ENDBRANCH  19  20
ENDBRANCH   7  19
TORSDOF 4
