REMARK VINA RESULT:    -6.740      3.039      5.669
REMARK INTER + INTRA:          -8.560
REMARK INTER:                  -8.024
REMARK INTRA:                  -0.536
REMARK UNBOUND:                -0.638
REMARK  Name = 1c.sdf
REMARK  3 active torsions:
REMARK  status: ('A' for Active; 'I' for Inactive)
REMARK    1  A    between atoms: N_7  and  C_12
REMARK    2  A    between atoms: C_9  and  C_10
REMARK    3  A    between atoms: C_12  and  C_13
REMARK                            x       y       z     vdW  Elec       q    Type
REMARK                         _______ _______ _______ _____ _____    ______ ____
ROOT
ATOM      1  C   UNL     1     -44.707  -5.624  31.840  0.00  0.00    -0.061 A 
ATOM      2  C   UNL     1     -44.643  -5.603  33.230  0.00  0.00    -0.060 A 
ATOM      3  C   UNL     1     -45.796  -5.423  34.010  0.00  0.00    -0.038 A 
ATOM      4  C   UNL     1     -47.026  -5.229  33.358  0.00  0.00    +0.050 A 
ATOM      5  C   UNL     1     -47.118  -5.311  31.959  0.00  0.00    +0.010 A 
ATOM      6  C   UNL     1     -45.942  -5.504  31.200  0.00  0.00    -0.052 A 
ATOM      7  N   UNL     1     -48.299  -4.928  33.828  0.00  0.00    -0.342 N 
ATOM      8  C   UNL     1     -49.185  -4.927  32.775  0.00  0.00    +0.016 A 
ATOM      9  C   UNL     1     -48.488  -5.167  31.610  0.00  0.00    +0.039 A 
ENDROOT
BRANCH   9  10
ATOM     10  C   UNL     1     -49.075  -5.238  30.282  0.00  0.00    +0.152 C 
ATOM     11  O   UNL     1     -50.204  -5.654  30.059  0.00  0.00    -0.296 OA
ENDBRANCH   9  10
BRANCH   7  12
ATOM     12  C   UNL     1     -48.683  -4.499  35.177  0.00  0.00    +0.048 C 
BRANCH  12  13
ATOM     13  C   UNL     1     -49.232  -3.093  35.197  0.00  0.00    -0.028 A 
ATOM     14  C   UNL     1     -48.356  -2.000  35.203  0.00  0.00    -0.055 A 
ATOM     15  C   UNL     1     -48.834  -0.710  35.440  0.00  0.00    -0.043 A 
ATOM     16  C   UNL     1     -50.198  -0.502  35.632  0.00  0.00    +0.041 A 
ATOM     17  C   UNL     1     -51.095  -1.560  35.511  0.00  0.00    -0.043 A 
ATOM     18  C   UNL     1     -50.613  -2.855  35.290  0.00  0.00    -0.055 A 
ATOM     19 CL   UNL     1     -50.767   1.058  36.081  0.00  0.00    -0.084 Cl
ENDBRANCH  12  13
ENDBRANCH   7  12
TORSDOF 3
