REMARK VINA RESULT:    -7.855      1.707      2.580
REMARK INTER + INTRA:         -11.566
REMARK INTER:                 -11.416
REMARK INTRA:                  -0.150
REMARK UNBOUND:                -0.956
REMARK  Name = 26a.sdf
REMARK  7 active torsions:
REMARK  status: ('A' for Active; 'I' for Inactive)
REMARK    1  A    between atoms: N_7  and  C_10
REMARK    2  A    between atoms: C_9  and  C_18
REMARK    3  A    between atoms: C_10  and  C_11
REMARK    4  A    between atoms: N_19  and  N_20
REMARK    5  A    between atoms: C_21  and  C_23
REMARK    6  A    between atoms: C_26  and  O_29
REMARK    7  A    between atoms: C_28  and  O_30
REMARK                            x       y       z     vdW  Elec       q    Type
REMARK                         _______ _______ _______ _____ _____    ______ ____
ROOT
ATOM      1  C   UNL     1     -53.846   0.057  35.570  0.00  0.00    -0.061 A 
ATOM      2  C   UNL     1     -52.757   0.820  35.973  0.00  0.00    -0.060 A 
ATOM      3  C   UNL     1     -51.450   0.417  35.685  0.00  0.00    -0.038 A 
ATOM      4  C   UNL     1     -51.261  -0.777  34.968  0.00  0.00    +0.050 A 
ATOM      5  C   UNL     1     -52.346  -1.536  34.510  0.00  0.00    +0.009 A 
ATOM      6  C   UNL     1     -53.655  -1.115  34.832  0.00  0.00    -0.052 A 
ATOM      7  N   UNL     1     -50.112  -1.445  34.587  0.00  0.00    -0.342 N 
ATOM      8  C   UNL     1     -50.443  -2.545  33.838  0.00  0.00    +0.015 A 
ATOM      9  C   UNL     1     -51.817  -2.637  33.764  0.00  0.00    +0.020 A 
ENDROOT
BRANCH   9  10
ATOM     10  C   UNL     1     -52.556  -3.663  33.060  0.00  0.00    +0.055 C 
ATOM     11  N   UNL     1     -52.735  -3.561  31.783  0.00  0.00    -0.187 NA
BRANCH  11  12
ATOM     12  N   UNL     1     -53.453  -4.572  31.220  0.00  0.00    -0.203 N 
ATOM     13  C   UNL     1     -52.823  -5.622  30.578  0.00  0.00    +0.267 C 
ATOM     14  O   UNL     1     -51.602  -5.751  30.469  0.00  0.00    -0.268 OA
ATOM     15  H   UNL     1     -54.436  -4.555  31.268  0.00  0.00    +0.000 HD
BRANCH  13  16
ATOM     16  C   UNL     1     -53.727  -6.659  29.977  0.00  0.00    +0.080 A 
ATOM     17  C   UNL     1     -53.356  -8.007  30.131  0.00  0.00    -0.043 A 
ATOM     18  C   UNL     1     -54.131  -9.035  29.590  0.00  0.00    -0.019 A 
ATOM     19  C   UNL     1     -55.289  -8.716  28.890  0.00  0.00    +0.120 A 
ATOM     20  C   UNL     1     -55.685  -7.394  28.730  0.00  0.00    +0.022 A 
ATOM     21  C   UNL     1     -54.905  -6.366  29.271  0.00  0.00    +0.132 A 
BRANCH  19  22
ATOM     22  O   UNL     1     -56.073  -9.681  28.333  0.00  0.00    -0.507 OA
ATOM     23  H   UNL     1     -55.993  -9.882  27.421  0.00  0.00    +0.000 HD
ENDBRANCH  19  22
BRANCH  21  24
ATOM     24  O   UNL     1     -55.319  -5.070  29.088  0.00  0.00    -0.506 OA
ATOM     25  H   UNL     1     -56.218  -4.842  29.224  0.00  0.00    +0.000 HD
ENDBRANCH  21  24
ENDBRANCH  13  16
ENDBRANCH  11  12
ENDBRANCH   9  10
BRANCH   7  26
ATOM     26  C   UNL     1     -48.746  -1.130  35.000  0.00  0.00    +0.048 C 
BRANCH  26  27
ATOM     27  C   UNL     1     -47.818  -2.301  34.797  0.00  0.00    -0.028 A 
ATOM     28  C   UNL     1     -46.506  -2.098  34.344  0.00  0.00    -0.056 A 
ATOM     29  C   UNL     1     -45.682  -3.183  34.044  0.00  0.00    -0.047 A 
ATOM     30  C   UNL     1     -46.162  -4.480  34.207  0.00  0.00    +0.018 A 
ATOM     31  C   UNL     1     -47.443  -4.701  34.708  0.00  0.00    -0.047 A 
ATOM     32  C   UNL     1     -48.268  -3.614  35.003  0.00  0.00    -0.056 A 
ATOM     33 BR   UNL     1     -45.079  -5.947  33.712  0.00  0.00    -0.050 Br
ENDBRANCH  26  27
ENDBRANCH   7  26
TORSDOF 7
