REMARK VINA RESULT:    -8.659      1.698      2.374
REMARK INTER + INTRA:         -12.652
REMARK INTER:                 -11.488
REMARK INTRA:                  -1.164
REMARK UNBOUND:                -0.956
REMARK  Name = 26a.sdf
REMARK  7 active torsions:
REMARK  status: ('A' for Active; 'I' for Inactive)
REMARK    1  A    between atoms: N_7  and  C_10
REMARK    2  A    between atoms: C_9  and  C_18
REMARK    3  A    between atoms: C_10  and  C_11
REMARK    4  A    between atoms: N_19  and  N_20
REMARK    5  A    between atoms: C_21  and  C_23
REMARK    6  A    between atoms: C_26  and  O_29
REMARK    7  A    between atoms: C_28  and  O_30
REMARK                            x       y       z     vdW  Elec       q    Type
REMARK                         _______ _______ _______ _____ _____    ______ ____
ROOT
ATOM      1  C   UNL     1     -49.680  -2.412  34.470  0.00  0.00    -0.061 A 
ATOM      2  C   UNL     1     -48.349  -2.555  34.843  0.00  0.00    -0.060 A 
ATOM      3  C   UNL     1     -47.618  -3.691  34.482  0.00  0.00    -0.038 A 
ATOM      4  C   UNL     1     -48.260  -4.685  33.723  0.00  0.00    +0.050 A 
ATOM      5  C   UNL     1     -49.586  -4.540  33.295  0.00  0.00    +0.009 A 
ATOM      6  C   UNL     1     -50.305  -3.390  33.691  0.00  0.00    -0.052 A 
ATOM      7  N   UNL     1     -47.824  -5.917  33.271  0.00  0.00    -0.342 N 
ATOM      8  C   UNL     1     -48.801  -6.502  32.507  0.00  0.00    +0.015 A 
ATOM      9  C   UNL     1     -49.909  -5.680  32.496  0.00  0.00    +0.020 A 
ENDROOT
BRANCH   9  10
ATOM     10  C   UNL     1     -51.149  -5.949  31.798  0.00  0.00    +0.055 C 
ATOM     11  N   UNL     1     -51.132  -6.646  30.709  0.00  0.00    -0.187 NA
BRANCH  11  12
ATOM     12  N   UNL     1     -52.349  -6.831  30.125  0.00  0.00    -0.203 N 
ATOM     13  C   UNL     1     -53.015  -8.037  30.232  0.00  0.00    +0.267 C 
ATOM     14  O   UNL     1     -52.602  -9.019  30.850  0.00  0.00    -0.268 OA
ATOM     15  H   UNL     1     -52.760  -6.094  29.618  0.00  0.00    +0.000 HD
BRANCH  13  16
ATOM     16  C   UNL     1     -54.336  -8.121  29.522  0.00  0.00    +0.080 A 
ATOM     17  C   UNL     1     -55.239  -7.060  29.710  0.00  0.00    -0.043 A 
ATOM     18  C   UNL     1     -56.495  -7.065  29.099  0.00  0.00    -0.019 A 
ATOM     19  C   UNL     1     -56.853  -8.138  28.291  0.00  0.00    +0.120 A 
ATOM     20  C   UNL     1     -55.977  -9.196  28.079  0.00  0.00    +0.022 A 
ATOM     21  C   UNL     1     -54.721  -9.189  28.695  0.00  0.00    +0.132 A 
BRANCH  19  22
ATOM     22  O   UNL     1     -58.071  -8.196  27.682  0.00  0.00    -0.507 OA
ATOM     23  H   UNL     1     -58.158  -7.949  26.782  0.00  0.00    +0.000 HD
ENDBRANCH  19  22
BRANCH  21  24
ATOM     24  O   UNL     1     -53.882 -10.253  28.472  0.00  0.00    -0.506 OA
ATOM     25  H   UNL     1     -54.045 -11.074  28.894  0.00  0.00    +0.000 HD
ENDBRANCH  21  24
ENDBRANCH  13  16
ENDBRANCH  11  12
ENDBRANCH   9  10
BRANCH   7  26
ATOM     26  C   UNL     1     -46.572  -6.581  33.627  0.00  0.00    +0.048 C 
BRANCH  26  27
ATOM     27  C   UNL     1     -45.532  -6.430  32.546  0.00  0.00    -0.028 A 
ATOM     28  C   UNL     1     -45.095  -7.547  31.819  0.00  0.00    -0.056 A 
ATOM     29  C   UNL     1     -44.052  -7.433  30.899  0.00  0.00    -0.047 A 
ATOM     30  C   UNL     1     -43.448  -6.196  30.691  0.00  0.00    +0.018 A 
ATOM     31  C   UNL     1     -43.905  -5.064  31.363  0.00  0.00    -0.047 A 
ATOM     32  C   UNL     1     -44.946  -5.182  32.287  0.00  0.00    -0.056 A 
ATOM     33 BR   UNL     1     -41.974  -6.060  29.516  0.00  0.00    -0.050 Br
ENDBRANCH  26  27
ENDBRANCH   7  26
TORSDOF 7
