REMARK  Name = 24c.sdf
REMARK  6 active torsions:
REMARK  status: ('A' for Active; 'I' for Inactive)
REMARK    1  A    between atoms: N_7  and  C_10
REMARK    2  A    between atoms: C_9  and  C_18
REMARK    3  A    between atoms: C_10  and  C_11
REMARK    4  A    between atoms: N_19  and  N_20
REMARK    5  A    between atoms: C_21  and  C_23
REMARK    6  A    between atoms: C_26  and  O_29
REMARK                            x       y       z     vdW  Elec       q    Type
REMARK                         _______ _______ _______ _____ _____    ______ ____
ROOT
ATOM      1  C   UNL     1      -2.120  -0.918  -0.061  0.00  0.00    -0.061 A 
ATOM      2  C   UNL     1      -2.176   0.464  -0.194  0.00  0.00    -0.060 A 
ATOM      3  C   UNL     1      -1.007   1.231  -0.218  0.00  0.00    -0.038 A 
ATOM      4  C   UNL     1       0.229   0.570  -0.112  0.00  0.00    +0.050 A 
ATOM      5  C   UNL     1       0.311  -0.825  -0.025  0.00  0.00    +0.009 A 
ATOM      6  C   UNL     1      -0.887  -1.572   0.015  0.00  0.00    -0.052 A 
ATOM      7  N   UNL     1       1.526   1.052  -0.059  0.00  0.00    -0.342 N 
ATOM      8  C   UNL     1       2.409   0.004  -0.022  0.00  0.00    +0.015 A 
ATOM      9  C   UNL     1       1.696  -1.180  -0.009  0.00  0.00    +0.020 A 
ENDROOT
BRANCH   9  10
ATOM     10  C   UNL     1       2.260  -2.516   0.013  0.00  0.00    +0.055 C 
ATOM     11  N   UNL     1       3.542  -2.674  -0.022  0.00  0.00    -0.187 NA
BRANCH  11  12
ATOM     12  N   UNL     1       3.984  -3.968  -0.003  0.00  0.00    -0.203 N 
ATOM     13  C   UNL     1       5.346  -4.225  -0.019  0.00  0.00    +0.263 C 
ATOM     14  O   UNL     1       6.230  -3.375  -0.040  0.00  0.00    -0.268 OA
ATOM     15  H   UNL     1       3.339  -4.712   0.021  0.00  0.00    +0.000 HD
BRANCH  13  16
ATOM     16  C   UNL     1       5.733  -5.667   0.029  0.00  0.00    +0.039 A 
ATOM     17  C   UNL     1       4.931  -6.681  -0.521  0.00  0.00    -0.046 A 
ATOM     18  C   UNL     1       5.335  -8.019  -0.436  0.00  0.00    -0.019 A 
ATOM     19  C   UNL     1       6.540  -8.335   0.185  0.00  0.00    +0.117 A 
ATOM     20  C   UNL     1       7.356  -7.339   0.706  0.00  0.00    -0.019 A 
ATOM     21  C   UNL     1       6.955  -6.004   0.625  0.00  0.00    -0.046 A 
BRANCH  19  22
ATOM     22  O   UNL     1       6.965  -9.625   0.299  0.00  0.00    -0.507 OA
ATOM     23  H   UNL     1       6.440 -10.323  -0.041  0.00  0.00    +0.000 HD
ENDBRANCH  19  22
ENDBRANCH  13  16
ENDBRANCH  11  12
ENDBRANCH   9  10
BRANCH   7  24
ATOM     24  C   UNL     1       1.924   2.454   0.052  0.00  0.00    +0.048 C 
BRANCH  24  25
ATOM     25  C   UNL     1       2.195   3.066  -1.300  0.00  0.00    -0.028 A 
ATOM     26  C   UNL     1       1.192   3.776  -1.976  0.00  0.00    -0.055 A 
ATOM     27  C   UNL     1       1.409   4.252  -3.271  0.00  0.00    -0.043 A 
ATOM     28  C   UNL     1       2.636   4.032  -3.893  0.00  0.00    +0.041 A 
ATOM     29  C   UNL     1       3.660   3.373  -3.217  0.00  0.00    -0.043 A 
ATOM     30  C   UNL     1       3.441   2.893  -1.924  0.00  0.00    -0.055 A 
ATOM     31 CL   UNL     1       2.878   4.558  -5.513  0.00  0.00    -0.084 Cl
ENDBRANCH  24  25
ENDBRANCH   7  24
TORSDOF 6
