REMARK  Name = native.pdb
REMARK  4 active torsions:
REMARK  status: ('A' for Active; 'I' for Inactive)
REMARK    1  A    between atoms: C_2  and  C_3
REMARK    2  A    between atoms: N_15  and  C_16
REMARK    3  A    between atoms: C_19  and  O_22
REMARK    4  A    between atoms: O_22  and  C_23
REMARK                            x       y       z     vdW  Elec       q    Type
REMARK                         _______ _______ _______ _____ _____    ______ ____
ROOT
ATOM      1  O   UNL     1       1.115   0.207   0.164  0.00  0.00    -0.270 OA
ATOM      2  C   UNL     1       2.333   0.160   0.014  0.00  0.00    +0.248 C 
ATOM      3  N   UNL     1       3.084  -0.966  -0.283  0.00  0.00    -0.281 N 
ATOM      4  H   UNL     1       4.052  -0.838  -0.408  0.00  0.00    +0.000 HD
ENDROOT
BRANCH   2   5
ATOM      5  C   UNL     1       3.082   1.430   0.206  0.00  0.00    +0.042 A 
ATOM      6  C   UNL     1       2.512   2.393   1.050  0.00  0.00    -0.010 A 
ATOM      7  C   UNL     1       3.160   3.592   1.292  0.00  0.00    +0.122 A 
ATOM      8  N   UNL     1       2.640   4.522   2.160  0.00  0.00    -0.311 N 
ATOM      9  C   UNL     1       1.203   4.792   2.281  0.00  0.00    +0.037 C 
ATOM     10  C   UNL     1       0.895   6.259   1.931  0.00  0.00    +0.063 C 
ATOM     11  O   UNL     1       1.715   7.175   2.675  0.00  0.00    -0.377 OA
ATOM     12  C   UNL     1       3.103   6.937   2.386  0.00  0.00    +0.063 C 
ATOM     13  C   UNL     1       3.519   5.517   2.784  0.00  0.00    +0.037 C 
ATOM     14  N   UNL     1       4.355   3.835   0.707  0.00  0.00    -0.240 NA
ATOM     15  C   UNL     1       4.881   2.916  -0.133  0.00  0.00    +0.030 A 
ATOM     16  C   UNL     1       4.290   1.703  -0.420  0.00  0.00    -0.031 A 
ENDBRANCH   2   5
BRANCH   3  17
ATOM     17  C   UNL     1       2.588  -2.285  -0.423  0.00  0.00    +0.034 A 
ATOM     18  C   UNL     1       1.244  -2.617  -0.257  0.00  0.00    -0.037 A 
ATOM     19  C   UNL     1       0.815  -3.941  -0.358  0.00  0.00    -0.018 A 
ATOM     20  C   UNL     1       1.711  -4.948  -0.712  0.00  0.00    +0.129 A 
ATOM     21  C   UNL     1       3.062  -4.634  -0.862  0.00  0.00    -0.018 A 
ATOM     22  C   UNL     1       3.500  -3.310  -0.714  0.00  0.00    -0.037 A 
BRANCH  20  23
ATOM     23  O   UNL     1       1.353  -6.268  -0.890  0.00  0.00    -0.456 OA
BRANCH  23  24
ATOM     24  C   UNL     1       0.073  -6.559  -1.312  0.00  0.00    +0.131 A 
ATOM     25  C   UNL     1      -0.606  -5.818  -2.277  0.00  0.00    -0.001 A 
ATOM     26  C   UNL     1      -1.911  -6.171  -2.568  0.00  0.00    +0.031 A 
ATOM     27  N   UNL     1      -2.541  -7.229  -2.018  0.00  0.00    -0.263 NA
ATOM     28  C   UNL     1      -1.832  -7.970  -1.138  0.00  0.00    +0.031 A 
ATOM     29  C   UNL     1      -0.534  -7.679  -0.755  0.00  0.00    -0.001 A 
ENDBRANCH  23  24
ENDBRANCH  20  23
ENDBRANCH   3  17
TORSDOF 4
