REMARK  Name = 7d.sdf
REMARK  5 active torsions:
REMARK  status: ('A' for Active; 'I' for Inactive)
REMARK    1  A    between atoms: C_9  and  C_10
REMARK    2  A    between atoms: C_10  and  C_11
REMARK    3  A    between atoms: C_11  and  O_20
REMARK    4  A    between atoms: C_12  and  C_13
REMARK    5  A    between atoms: O_20  and  C_22
REMARK                            x       y       z     vdW  Elec       q    Type
REMARK                         _______ _______ _______ _____ _____    ______ ____
ROOT
ATOM      1  C   UNL     1      -2.145  -0.703   0.001  0.00  0.00    -0.061 A 
ATOM      2  C   UNL     1      -2.160   0.686   0.017  0.00  0.00    -0.060 A 
ATOM      3  C   UNL     1      -0.968   1.416   0.042  0.00  0.00    -0.037 A 
ATOM      4  C   UNL     1       0.252   0.714   0.058  0.00  0.00    +0.057 A 
ATOM      5  C   UNL     1       0.287  -0.688   0.031  0.00  0.00    +0.004 A 
ATOM      6  C   UNL     1      -0.933  -1.398   0.005  0.00  0.00    -0.052 A 
ATOM      7  N   UNL     1       1.569   1.171   0.021  0.00  0.00    -0.283 N 
ATOM      8  C   UNL     1       2.399   0.067   0.097  0.00  0.00    +0.018 A 
ATOM      9  C   UNL     1       1.656  -1.091   0.026  0.00  0.00    -0.011 A 
ATOM     10  C   UNL     1       2.021   2.509  -0.095  0.00  0.00    +0.263 C 
ATOM     11  O   UNL     1       1.277   3.417   0.265  0.00  0.00    -0.267 OA
ENDROOT
BRANCH  10  12
ATOM     12  C   UNL     1       3.364   2.847  -0.636  0.00  0.00    +0.040 A 
ATOM     13  C   UNL     1       3.863   2.154  -1.748  0.00  0.00    -0.049 A 
ATOM     14  C   UNL     1       5.147   2.421  -2.220  0.00  0.00    -0.061 A 
ATOM     15  C   UNL     1       5.923   3.399  -1.602  0.00  0.00    -0.062 A 
ATOM     16  C   UNL     1       5.409   4.126  -0.525  0.00  0.00    -0.061 A 
ATOM     17  C   UNL     1       4.122   3.859  -0.041  0.00  0.00    -0.049 A 
ENDBRANCH  10  12
BRANCH   9  18
ATOM     18  C   UNL     1       2.212  -2.481  -0.030  0.00  0.00    +0.072 C 
BRANCH  18  19
ATOM     19  C   UNL     1       3.112  -2.710  -1.235  0.00  0.00    +0.311 C 
ATOM     20  O   UNL     1       3.368  -1.902  -2.118  0.00  0.00    -0.250 OA
BRANCH  19  21
ATOM     21  O   UNL     1       3.623  -3.977  -1.180  0.00  0.00    -0.468 OA
ATOM     22  C   UNL     1       4.511  -4.284  -2.257  0.00  0.00    +0.082 C 
ENDBRANCH  19  21
ENDBRANCH  18  19
ENDBRANCH   9  18
TORSDOF 4
