REMARK  Name = native.pdb
REMARK  12 active torsions:
REMARK  status: ('A' for Active; 'I' for Inactive)
REMARK    1  A    between atoms: C_4  and  C_6
REMARK    2  A    between atoms: N_5  and  CA_7
REMARK    3  A    between atoms: N_5  and  C_9
REMARK    4  A    between atoms: C_6  and  CA_7
REMARK    5  A    between atoms: CA_7  and  C_16
REMARK    6  A    between atoms: C_10  and  C_15
REMARK    7  A    between atoms: C_15  and  C_18
REMARK    8  A    between atoms: C_27  and  O_28
REMARK    9  A    between atoms: O_28  and  C_29
REMARK   10  A    between atoms: C_29  and  C_30
REMARK   11  A    between atoms: C_30  and  N_31
REMARK   12  A    between atoms: N_31  and  C_32
REMARK                            x       y       z     vdW  Elec       q    Type
REMARK                         _______ _______ _______ _____ _____    ______ ____
ROOT
ATOM      1  CA  UNL     1       3.169  -1.414   0.327  0.00  0.00    +0.122 C 
ENDROOT
BRANCH   1   3
ATOM      2  O   UNL     1       2.369   0.901   0.192  0.00  0.00    -0.249 OA
ATOM      3  C   UNL     1       2.313  -0.250  -0.223  0.00  0.00    +0.326 C 
ATOM      4  OXT UNL     1       1.466  -0.600  -1.226  0.00  0.00    -0.479 OA
ENDBRANCH   1   3
BRANCH   1   5
ATOM      5  N   UNL     1       4.168  -0.870   1.284  0.00  0.00    -0.331 N 
ATOM      6  H   UNL     1       3.903  -0.092   1.826  0.00  0.00    +0.000 HD
BRANCH   5   7
ATOM      7  C   UNL     1       5.460  -1.383   1.472  0.00  0.00    +0.039 A 
ATOM      8  C   UNL     1       6.342  -1.943   0.519  0.00  0.00    +0.043 A 
ATOM      9  C   UNL     1       7.612  -2.417   0.915  0.00  0.00    -0.049 A 
ATOM     10  C   UNL     1       8.049  -2.291   2.231  0.00  0.00    -0.061 A 
ATOM     11  C   UNL     1       7.244  -1.644   3.153  0.00  0.00    -0.060 A 
ATOM     12  C   UNL     1       5.973  -1.196   2.775  0.00  0.00    -0.040 A 
BRANCH   8  13
ATOM     13  C   UNL     1       6.085  -1.928  -0.950  0.00  0.00    +0.195 C 
ATOM     14  O   UNL     1       5.590  -0.924  -1.459  0.00  0.00    -0.287 OA
BRANCH  13  15
ATOM     15  C   UNL     1       6.406  -3.086  -1.842  0.00  0.00    +0.022 A 
ATOM     16  C   UNL     1       6.502  -2.854  -3.219  0.00  0.00    -0.051 A 
ATOM     17  C   UNL     1       6.704  -3.917  -4.103  0.00  0.00    -0.061 A 
ATOM     18  C   UNL     1       6.779  -5.224  -3.624  0.00  0.00    -0.062 A 
ATOM     19  C   UNL     1       6.691  -5.467  -2.258  0.00  0.00    -0.061 A 
ATOM     20  C   UNL     1       6.537  -4.398  -1.372  0.00  0.00    -0.051 A 
ENDBRANCH  13  15
ENDBRANCH   8  13
ENDBRANCH   5   7
ENDBRANCH   1   5
BRANCH   1  21
ATOM     21  C   UNL     1       2.201  -2.409   1.023  0.00  0.00    +0.001 C 
BRANCH  21  24
ATOM     22  C   UNL     1       2.768  -5.585   3.072  0.00  0.00    -0.020 A 
ATOM     23  C   UNL     1       2.216  -4.387   2.593  0.00  0.00    -0.055 A 
ATOM     24  C   UNL     1       2.781  -3.721   1.504  0.00  0.00    -0.045 A 
ATOM     25  C   UNL     1       3.847  -4.334   0.848  0.00  0.00    -0.055 A 
ATOM     26  C   UNL     1       4.425  -5.498   1.347  0.00  0.00    -0.020 A 
ATOM     27  C   UNL     1       3.898  -6.124   2.464  0.00  0.00    +0.121 A 
BRANCH  27  28
ATOM     28  O   UNL     1       4.583  -7.238   2.850  0.00  0.00    -0.490 OA
BRANCH  28  29
ATOM     29  C   UNL     1       3.941  -8.071   3.818  0.00  0.00    +0.105 C 
BRANCH  29  30
ATOM     30  C   UNL     1       4.804  -9.317   4.049  0.00  0.00    +0.047 C 
BRANCH  30  32
ATOM     31  N   UNL     1       2.778 -11.054   3.577  0.00  0.00    -0.240 NA
ATOM     32  N   UNL     1       4.848 -10.181   2.858  0.00  0.00    -0.315 N 
ATOM     33  C   UNL     1       6.154 -10.475   2.292  0.00  0.00    +0.002 C 
ATOM     34  C   UNL     1       3.808 -11.095   2.704  0.00  0.00    +0.121 A 
ATOM     35  C   UNL     1       3.803 -12.031   1.664  0.00  0.00    -0.022 A 
ATOM     36  C   UNL     1       2.757 -12.957   1.555  0.00  0.00    -0.057 A 
ATOM     37  C   UNL     1       1.729 -12.924   2.472  0.00  0.00    -0.043 A 
ATOM     38  C   UNL     1       1.779 -11.958   3.450  0.00  0.00    +0.030 A 
ENDBRANCH  30  32
ENDBRANCH  29  30
ENDBRANCH  28  29
ENDBRANCH  27  28
ENDBRANCH  21  24
ENDBRANCH   1  21
TORSDOF 11
