MODEL 1
REMARK VINA RESULT:    -8.583      0.000      0.000
REMARK INTER + INTRA:         -12.096
REMARK INTER:                 -11.092
REMARK INTRA:                  -1.004
REMARK UNBOUND:                -1.004
REMARK  Name = 15d.sdf
REMARK  5 active torsions:
REMARK  status: ('A' for Active; 'I' for Inactive)
REMARK    1  A    between atoms: C_9  and  C_10
REMARK    2  A    between atoms: C_10  and  O_11
REMARK    3  A    between atoms: O_11  and  C_12
REMARK    4  A    between atoms: C_12  and  C_13
REMARK    5  A    between atoms: C_15  and  C_16
REMARK                            x       y       z     vdW  Elec       q    Type
REMARK                         _______ _______ _______ _____ _____    ______ ____
ROOT
ATOM      1  C   UNL     1     145.195 -19.540  24.664  0.00  0.00    -0.061 A 
ATOM      2  C   UNL     1     146.509 -19.915  24.417  0.00  0.00    -0.060 A 
ATOM      3  C   UNL     1     147.030 -19.890  23.119  0.00  0.00    -0.037 A 
ATOM      4  C   UNL     1     146.192 -19.482  22.064  0.00  0.00    +0.057 A 
ATOM      5  C   UNL     1     144.864 -19.096  22.297  0.00  0.00    +0.007 A 
ATOM      6  C   UNL     1     144.368 -19.127  23.615  0.00  0.00    -0.052 A 
ATOM      7  N   UNL     1     146.456 -19.300  20.705  0.00  0.00    -0.283 N 
ATOM      8  C   UNL     1     145.277 -18.887  20.099  0.00  0.00    +0.020 A 
ATOM      9  C   UNL     1     144.289 -18.721  21.046  0.00  0.00    +0.015 A 
ATOM     10  C   UNL     1     147.697 -19.471  20.042  0.00  0.00    +0.263 C 
ATOM     11  O   UNL     1     148.533 -20.218  20.545  0.00  0.00    -0.267 OA
ENDROOT
BRANCH  10  12
ATOM     12  C   UNL     1     148.034 -18.779  18.769  0.00  0.00    +0.040 A 
ATOM     13  C   UNL     1     148.872 -17.655  18.780  0.00  0.00    -0.049 A 
ATOM     14  C   UNL     1     149.138 -16.971  17.596  0.00  0.00    -0.061 A 
ATOM     15  C   UNL     1     148.597 -17.426  16.395  0.00  0.00    -0.062 A 
ATOM     16  C   UNL     1     147.813 -18.581  16.372  0.00  0.00    -0.061 A 
ATOM     17  C   UNL     1     147.536 -19.266  17.557  0.00  0.00    -0.049 A 
ENDBRANCH  10  12
BRANCH   9  18
ATOM     18  C   UNL     1     142.901 -18.210  20.808  0.00  0.00    +0.120 C 
BRANCH  18  19
ATOM     19  O   UNL     1     142.904 -16.840  20.374  0.00  0.00    -0.456 OA
BRANCH  19  20
ATOM     20  C   UNL     1     143.106 -15.912  21.337  0.00  0.00    +0.339 C 
ATOM     21  O   UNL     1     142.890 -16.050  22.530  0.00  0.00    -0.245 OA
BRANCH  20  22
ATOM     22  C   UNL     1     143.624 -14.643  20.753  0.00  0.00    +0.059 A 
ATOM     23  C   UNL     1     144.003 -14.638  19.403  0.00  0.00    -0.048 A 
ATOM     24  C   UNL     1     144.520 -13.481  18.817  0.00  0.00    -0.061 A 
ATOM     25  C   UNL     1     144.654 -12.318  19.574  0.00  0.00    -0.062 A 
ATOM     26  C   UNL     1     144.263 -12.308  20.912  0.00  0.00    -0.061 A 
ATOM     27  C   UNL     1     143.749 -13.466  21.503  0.00  0.00    -0.048 A 
ENDBRANCH  20  22
ENDBRANCH  19  20
ENDBRANCH  18  19
ENDBRANCH   9  18
TORSDOF 5
ENDMDL
