MODEL 1
REMARK VINA RESULT:    -8.472      0.000      0.000
REMARK INTER + INTRA:         -10.748
REMARK INTER:                 -10.453
REMARK INTRA:                  -0.295
REMARK UNBOUND:                -0.295
REMARK  Name = 16.sdf
REMARK  4 active torsions:
REMARK  status: ('A' for Active; 'I' for Inactive)
REMARK    1  A    between atoms: C_9  and  C_10
REMARK    2  A    between atoms: C_10  and  O_11
REMARK    3  A    between atoms: O_11  and  C_12
REMARK    4  A    between atoms: C_12  and  C_13
REMARK                            x       y       z     vdW  Elec       q    Type
REMARK                         _______ _______ _______ _____ _____    ______ ____
ROOT
ATOM      1  C   UNL     1     144.172  -5.956  20.503  0.00  0.00    -0.061 A 
ATOM      2  C   UNL     1     145.449  -5.415  20.618  0.00  0.00    -0.060 A 
ATOM      3  C   UNL     1     146.566  -6.239  20.776  0.00  0.00    -0.038 A 
ATOM      4  C   UNL     1     146.353  -7.622  20.814  0.00  0.00    +0.047 A 
ATOM      5  C   UNL     1     145.087  -8.200  20.697  0.00  0.00    +0.005 A 
ATOM      6  C   UNL     1     143.977  -7.342  20.540  0.00  0.00    -0.052 A 
ATOM      7  N   UNL     1     147.254  -8.650  20.960  0.00  0.00    -0.360 N 
ATOM      8  C   UNL     1     146.606  -9.852  20.945  0.00  0.00    +0.008 A 
ATOM      9  C   UNL     1     145.253  -9.623  20.770  0.00  0.00    +0.003 A 
ATOM     10  H   UNL     1     148.227  -8.536  21.061  0.00  0.00    +0.000 HD
ENDROOT
BRANCH   9  11
ATOM     11  C   UNL     1     144.179 -10.662  20.688  0.00  0.00    +0.075 C 
BRANCH  11  12
ATOM     12  O   UNL     1     144.709 -11.970  20.920  0.00  0.00    -0.371 OA
BRANCH  12  13
ATOM     13  C   UNL     1     144.470 -12.849  19.823  0.00  0.00    +0.073 C 
BRANCH  13  14
ATOM     14  C   UNL     1     143.969 -14.184  20.327  0.00  0.00    -0.022 A 
ATOM     15  C   UNL     1     143.436 -14.293  21.620  0.00  0.00    -0.055 A 
ATOM     16  C   UNL     1     142.948 -15.516  22.088  0.00  0.00    -0.043 A 
ATOM     17  C   UNL     1     142.978 -16.637  21.262  0.00  0.00    +0.041 A 
ATOM     18  C   UNL     1     143.485 -16.544  19.969  0.00  0.00    -0.043 A 
ATOM     19  C   UNL     1     143.973 -15.321  19.502  0.00  0.00    -0.055 A 
ATOM     20 CL   UNL     1     142.381 -18.144  21.840  0.00  0.00    -0.084 Cl
ENDBRANCH  13  14
ENDBRANCH  12  13
ENDBRANCH  11  12
ENDBRANCH   9  11
TORSDOF 4
ENDMDL
