MODEL 1
REMARK VINA RESULT:   -10.286      0.000      0.000
REMARK INTER + INTRA:         -13.295
REMARK INTER:                 -13.894
REMARK INTRA:                   0.599
REMARK UNBOUND:                 0.599
REMARK  Name = 16c.sdf
REMARK  6 active torsions:
REMARK  status: ('A' for Active; 'I' for Inactive)
REMARK    1  A    between atoms: N_7  and  C_11
REMARK    2  A    between atoms: C_9  and  C_10
REMARK    3  A    between atoms: C_10  and  O_19
REMARK    4  A    between atoms: C_11  and  C_12
REMARK    5  A    between atoms: O_19  and  C_20
REMARK    6  A    between atoms: C_20  and  C_21
REMARK                            x       y       z     vdW  Elec       q    Type
REMARK                         _______ _______ _______ _____ _____    ______ ____
ROOT
ATOM      1  C   UNL     1     144.667 -11.095  16.677  0.00  0.00    -0.061 A 
ATOM      2  C   UNL     1     145.007  -9.928  17.358  0.00  0.00    -0.060 A 
ATOM      3  C   UNL     1     145.015  -9.885  18.758  0.00  0.00    -0.038 A 
ATOM      4  C   UNL     1     144.679 -11.053  19.463  0.00  0.00    +0.050 A 
ATOM      5  C   UNL     1     144.375 -12.244  18.798  0.00  0.00    +0.005 A 
ATOM      6  C   UNL     1     144.364 -12.259  17.388  0.00  0.00    -0.052 A 
ATOM      7  N   UNL     1     144.570 -11.312  20.817  0.00  0.00    -0.342 N 
ATOM      8  C   UNL     1     144.282 -12.641  21.016  0.00  0.00    +0.011 A 
ATOM      9  C   UNL     1     144.172 -13.256  19.784  0.00  0.00    +0.003 A 
ENDROOT
BRANCH   9  10
ATOM     10  C   UNL     1     143.948 -14.710  19.523  0.00  0.00    +0.075 C 
BRANCH  10  11
ATOM     11  O   UNL     1     143.106 -15.329  20.502  0.00  0.00    -0.371 OA
BRANCH  11  12
ATOM     12  C   UNL     1     143.830 -16.178  21.387  0.00  0.00    +0.073 C 
BRANCH  12  13
ATOM     13  C   UNL     1     144.071 -17.492  20.691  0.00  0.00    -0.022 A 
ATOM     14  C   UNL     1     142.992 -18.310  20.327  0.00  0.00    -0.055 A 
ATOM     15  C   UNL     1     143.214 -19.530  19.687  0.00  0.00    -0.043 A 
ATOM     16  C   UNL     1     144.517 -19.942  19.420  0.00  0.00    +0.041 A 
ATOM     17  C   UNL     1     145.601 -19.144  19.788  0.00  0.00    -0.043 A 
ATOM     18  C   UNL     1     145.377 -17.928  20.430  0.00  0.00    -0.055 A 
ATOM     19 CL   UNL     1     144.794 -21.447  18.632  0.00  0.00    -0.084 Cl
ENDBRANCH  12  13
ENDBRANCH  11  12
ENDBRANCH  10  11
ENDBRANCH   9  10
BRANCH   7  20
ATOM     20  C   UNL     1     144.658 -10.331  21.897  0.00  0.00    +0.048 C 
BRANCH  20  21
ATOM     21  C   UNL     1     145.074  -8.973  21.387  0.00  0.00    -0.028 A 
ATOM     22  C   UNL     1     146.433  -8.646  21.267  0.00  0.00    -0.055 A 
ATOM     23  C   UNL     1     146.825  -7.360  20.886  0.00  0.00    -0.043 A 
ATOM     24  C   UNL     1     145.858  -6.396  20.611  0.00  0.00    +0.041 A 
ATOM     25  C   UNL     1     144.505  -6.715  20.682  0.00  0.00    -0.043 A 
ATOM     26  C   UNL     1     144.113  -8.000  21.066  0.00  0.00    -0.055 A 
ATOM     27 CL   UNL     1     146.341  -4.796  20.202  0.00  0.00    -0.084 Cl
ENDBRANCH  20  21
ENDBRANCH   7  20
TORSDOF 6
ENDMDL
