MODEL 1
REMARK VINA RESULT:    -8.310      0.000      0.000
REMARK INTER + INTRA:          -9.252
REMARK INTER:                  -9.282
REMARK INTRA:                   0.030
REMARK UNBOUND:                 0.030
REMARK  Name = 17.sdf
REMARK  2 active torsions:
REMARK  status: ('A' for Active; 'I' for Inactive)
REMARK    1  A    between atoms: C_9  and  C_10
REMARK    2  A    between atoms: N_11  and  N_12
REMARK                            x       y       z     vdW  Elec       q    Type
REMARK                         _______ _______ _______ _____ _____    ______ ____
ROOT
ATOM      1  C   UNL     1     144.390 -11.917  21.535  0.00  0.00    -0.061 A 
ATOM      2  C   UNL     1     144.066 -13.128  20.929  0.00  0.00    -0.060 A 
ATOM      3  C   UNL     1     144.030 -13.250  19.538  0.00  0.00    -0.038 A 
ATOM      4  C   UNL     1     144.325 -12.111  18.781  0.00  0.00    +0.047 A 
ATOM      5  C   UNL     1     144.653 -10.881  19.357  0.00  0.00    +0.008 A 
ATOM      6  C   UNL     1     144.689 -10.789  20.763  0.00  0.00    -0.052 A 
ATOM      7  N   UNL     1     144.358 -11.946  17.417  0.00  0.00    -0.360 N 
ATOM      8  C   UNL     1     144.683 -10.656  17.110  0.00  0.00    +0.011 A 
ATOM      9  C   UNL     1     144.880  -9.958  18.289  0.00  0.00    +0.020 A 
ATOM     10  H   UNL     1     144.173 -12.654  16.757  0.00  0.00    +0.000 HD
ENDROOT
BRANCH   9  11
ATOM     11  C   UNL     1     145.240  -8.559  18.374  0.00  0.00    +0.055 C 
ATOM     12  N   UNL     1     144.589  -7.833  19.221  0.00  0.00    -0.186 NA
BRANCH  12  13
ATOM     13  N   UNL     1     144.926  -6.516  19.303  0.00  0.00    -0.191 N 
ATOM     14  C   UNL     1     145.795  -6.082  20.276  0.00  0.00    +0.317 C 
ATOM     15  O   UNL     1     146.143  -4.914  20.398  0.00  0.00    -0.251 OA
ATOM     16  N   UNL     1     146.235  -7.064  21.102  0.00  0.00    -0.312 N 
ATOM     17  H   UNL     1     144.545  -5.872  18.663  0.00  0.00    +0.000 HD
ATOM     18  H   UNL     1     145.931  -7.991  20.970  0.00  0.00    +0.000 HD
ATOM     19  H   UNL     1     146.860  -6.851  21.831  0.00  0.00    +0.000 HD
ENDBRANCH  12  13
ENDBRANCH   9  11
TORSDOF 2
ENDMDL
