MODEL 1
REMARK VINA RESULT:    -9.418      0.000      0.000
REMARK INTER + INTRA:         -11.106
REMARK INTER:                 -11.620
REMARK INTRA:                   0.515
REMARK UNBOUND:                 0.515
REMARK  Name = 17a.sdf
REMARK  4 active torsions:
REMARK  status: ('A' for Active; 'I' for Inactive)
REMARK    1  A    between atoms: N_7  and  C_16
REMARK    2  A    between atoms: C_9  and  C_10
REMARK    3  A    between atoms: N_11  and  N_12
REMARK    4  A    between atoms: C_16  and  C_17
REMARK                            x       y       z     vdW  Elec       q    Type
REMARK                         _______ _______ _______ _____ _____    ______ ____
ROOT
ATOM      1  C   UNL     1     144.447 -11.754  16.732  0.00  0.00    -0.061 A 
ATOM      2  C   UNL     1     144.757 -10.547  17.346  0.00  0.00    -0.060 A 
ATOM      3  C   UNL     1     144.805 -10.436  18.740  0.00  0.00    -0.038 A 
ATOM      4  C   UNL     1     144.529 -11.579  19.511  0.00  0.00    +0.050 A 
ATOM      5  C   UNL     1     144.272 -12.819  18.911  0.00  0.00    +0.009 A 
ATOM      6  C   UNL     1     144.218 -12.897  17.501  0.00  0.00    -0.052 A 
ATOM      7  N   UNL     1     144.432 -11.765  20.879  0.00  0.00    -0.342 N 
ATOM      8  C   UNL     1     144.215 -13.094  21.149  0.00  0.00    +0.015 A 
ATOM      9  C   UNL     1     144.120 -13.780  19.954  0.00  0.00    +0.020 A 
ENDROOT
BRANCH   9  10
ATOM     10  C   UNL     1     143.911 -15.206  19.816  0.00  0.00    +0.055 C 
ATOM     11  N   UNL     1     143.197 -15.826  20.697  0.00  0.00    -0.186 NA
BRANCH  11  12
ATOM     12  N   UNL     1     143.062 -17.169  20.502  0.00  0.00    -0.191 N 
ATOM     13  C   UNL     1     142.345 -17.956  21.366  0.00  0.00    +0.317 C 
ATOM     14  O   UNL     1     142.254 -19.169  21.253  0.00  0.00    -0.251 OA
ATOM     15  N   UNL     1     141.740 -17.268  22.369  0.00  0.00    -0.312 N 
ATOM     16  H   UNL     1     143.491 -17.585  19.719  0.00  0.00    +0.000 HD
ATOM     17  H   UNL     1     141.839 -16.290  22.424  0.00  0.00    +0.000 HD
ATOM     18  H   UNL     1     141.202 -17.747  23.040  0.00  0.00    +0.000 HD
ENDBRANCH  11  12
ENDBRANCH   9  10
BRANCH   7  19
ATOM     19  C   UNL     1     144.424 -10.726  21.909  0.00  0.00    +0.048 C 
BRANCH  19  20
ATOM     20  C   UNL     1     144.949  -9.414  21.382  0.00  0.00    -0.028 A 
ATOM     21  C   UNL     1     146.331  -9.203  21.261  0.00  0.00    -0.056 A 
ATOM     22  C   UNL     1     146.830  -7.945  20.924  0.00  0.00    -0.047 A 
ATOM     23  C   UNL     1     145.949  -6.893  20.685  0.00  0.00    +0.018 A 
ATOM     24  C   UNL     1     144.573  -7.105  20.721  0.00  0.00    -0.047 A 
ATOM     25  C   UNL     1     144.073  -8.363  21.066  0.00  0.00    -0.056 A 
ATOM     26 BR   UNL     1     146.627  -5.161  20.358  0.00  0.00    -0.050 Br
ENDBRANCH  19  20
ENDBRANCH   7  19
TORSDOF 4
ENDMDL
