MODEL 1
REMARK VINA RESULT:    -8.059      0.000      0.000
REMARK INTER + INTRA:          -9.830
REMARK INTER:                  -9.472
REMARK INTRA:                  -0.357
REMARK UNBOUND:                -0.357
REMARK  Name = 17d.sdf
REMARK  3 active torsions:
REMARK  status: ('A' for Active; 'I' for Inactive)
REMARK    1  A    between atoms: C_9  and  C_10
REMARK    2  A    between atoms: N_11  and  N_12
REMARK    3  A    between atoms: C_16  and  C_17
REMARK                            x       y       z     vdW  Elec       q    Type
REMARK                         _______ _______ _______ _____ _____    ______ ____
ROOT
ATOM      1  C   UNL     1     143.247 -20.786  21.317  0.00  0.00    -0.061 A 
ATOM      2  C   UNL     1     142.267 -19.887  21.716  0.00  0.00    -0.060 A 
ATOM      3  C   UNL     1     142.491 -18.509  21.661  0.00  0.00    -0.037 A 
ATOM      4  C   UNL     1     143.736 -18.048  21.193  0.00  0.00    +0.057 A 
ATOM      5  C   UNL     1     144.737 -18.939  20.778  0.00  0.00    +0.009 A 
ATOM      6  C   UNL     1     144.481 -20.327  20.849  0.00  0.00    -0.052 A 
ATOM      7  N   UNL     1     144.204 -16.750  20.986  0.00  0.00    -0.282 N 
ATOM      8  C   UNL     1     145.499 -16.844  20.515  0.00  0.00    +0.023 A 
ATOM      9  C   UNL     1     145.852 -18.165  20.350  0.00  0.00    +0.020 A 
ATOM     10  C   UNL     1     143.507 -15.535  21.194  0.00  0.00    +0.263 C 
ATOM     11  O   UNL     1     142.568 -15.528  21.986  0.00  0.00    -0.267 OA
ENDROOT
BRANCH  10  12
ATOM     12  C   UNL     1     143.863 -14.272  20.495  0.00  0.00    +0.040 A 
ATOM     13  C   UNL     1     144.027 -14.259  19.102  0.00  0.00    -0.049 A 
ATOM     14  C   UNL     1     144.405 -13.086  18.453  0.00  0.00    -0.061 A 
ATOM     15  C   UNL     1     144.589 -11.917  19.190  0.00  0.00    -0.062 A 
ATOM     16  C   UNL     1     144.379 -11.915  20.570  0.00  0.00    -0.061 A 
ATOM     17  C   UNL     1     144.009 -13.090  21.226  0.00  0.00    -0.049 A 
ENDBRANCH  10  12
BRANCH   9  18
ATOM     18  C   UNL     1     147.132 -18.612  19.840  0.00  0.00    +0.055 C 
ATOM     19  N   UNL     1     147.432 -18.308  18.618  0.00  0.00    -0.186 NA
BRANCH  19  20
ATOM     20  N   UNL     1     148.645 -18.745  18.170  0.00  0.00    -0.191 N 
ATOM     21  C   UNL     1     149.638 -17.860  17.824  0.00  0.00    +0.317 C 
ATOM     22  O   UNL     1     150.755 -18.213  17.473  0.00  0.00    -0.251 OA
ATOM     23  N   UNL     1     149.265 -16.555  17.889  0.00  0.00    -0.312 N 
ATOM     24  H   UNL     1     148.812 -19.713  18.092  0.00  0.00    +0.000 HD
ATOM     25  H   UNL     1     148.355 -16.317  18.177  0.00  0.00    +0.000 HD
ATOM     26  H   UNL     1     149.906 -15.848  17.650  0.00  0.00    +0.000 HD
ENDBRANCH  19  20
ENDBRANCH   9  18
TORSDOF 3
ENDMDL
