MODEL 1
REMARK VINA RESULT:    -8.190      0.000      0.000
REMARK INTER + INTRA:         -10.865
REMARK INTER:                 -10.584
REMARK INTRA:                  -0.281
REMARK UNBOUND:                -0.281
REMARK  Name = 17g.sdf
REMARK  6 active torsions:
REMARK  status: ('A' for Active; 'I' for Inactive)
REMARK    1  A    between atoms: N_7  and  C_16
REMARK    2  A    between atoms: C_9  and  C_10
REMARK    3  A    between atoms: N_11  and  N_12
REMARK    4  A    between atoms: C_16  and  C_17
REMARK    5  A    between atoms: C_20  and  O_23
REMARK    6  A    between atoms: O_23  and  C_24
REMARK                            x       y       z     vdW  Elec       q    Type
REMARK                         _______ _______ _______ _____ _____    ______ ____
ROOT
ATOM      1  C   UNL     1     143.239 -20.605  21.448  0.00  0.00    -0.061 A 
ATOM      2  C   UNL     1     142.159 -19.765  21.689  0.00  0.00    -0.060 A 
ATOM      3  C   UNL     1     142.285 -18.378  21.568  0.00  0.00    -0.038 A 
ATOM      4  C   UNL     1     143.532 -17.850  21.188  0.00  0.00    +0.050 A 
ATOM      5  C   UNL     1     144.619 -18.681  20.894  0.00  0.00    +0.009 A 
ATOM      6  C   UNL     1     144.467 -20.079  21.041  0.00  0.00    -0.052 A 
ATOM      7  N   UNL     1     143.968 -16.547  21.036  0.00  0.00    -0.342 N 
ATOM      8  C   UNL     1     145.263 -16.542  20.584  0.00  0.00    +0.015 A 
ATOM      9  C   UNL     1     145.703 -17.847  20.478  0.00  0.00    +0.020 A 
ENDROOT
BRANCH   9  10
ATOM     10  C   UNL     1     147.013 -18.265  20.025  0.00  0.00    +0.055 C 
ATOM     11  N   UNL     1     147.337 -18.094  18.784  0.00  0.00    -0.186 NA
BRANCH  11  12
ATOM     12  N   UNL     1     148.584 -18.535  18.439  0.00  0.00    -0.191 N 
ATOM     13  C   UNL     1     149.508 -17.696  17.858  0.00  0.00    +0.317 C 
ATOM     14  O   UNL     1     150.643 -18.047  17.571  0.00  0.00    -0.251 OA
ATOM     15  N   UNL     1     149.043 -16.444  17.625  0.00  0.00    -0.312 N 
ATOM     16  H   UNL     1     148.828 -19.474  18.609  0.00  0.00    +0.000 HD
ATOM     17  H   UNL     1     148.120 -16.208  17.874  0.00  0.00    +0.000 HD
ATOM     18  H   UNL     1     149.628 -15.771  17.208  0.00  0.00    +0.000 HD
ENDBRANCH  11  12
ENDBRANCH   9  10
BRANCH   7  19
ATOM     19  C   UNL     1     143.238 -15.335  21.407  0.00  0.00    +0.048 C 
BRANCH  19  20
ATOM     20  C   UNL     1     143.763 -14.120  20.686  0.00  0.00    -0.028 A 
ATOM     21  C   UNL     1     143.982 -12.926  21.381  0.00  0.00    -0.053 A 
ATOM     22  C   UNL     1     144.337 -11.764  20.694  0.00  0.00    -0.020 A 
ATOM     23  C   UNL     1     144.508 -11.777  19.310  0.00  0.00    +0.120 A 
ATOM     24  C   UNL     1     144.358 -12.975  18.616  0.00  0.00    -0.020 A 
ATOM     25  C   UNL     1     143.985 -14.140  19.301  0.00  0.00    -0.053 A 
BRANCH  23  26
ATOM     26  O   UNL     1     144.748 -10.549  18.761  0.00  0.00    -0.495 OA
ATOM     27  C   UNL     1     144.793 -10.462  17.344  0.00  0.00    +0.079 C 
ENDBRANCH  23  26
ENDBRANCH  19  20
ENDBRANCH   7  19
TORSDOF 5
ENDMDL
