MODEL 1
REMARK VINA RESULT:    -9.109      0.000      0.000
REMARK INTER + INTRA:         -12.576
REMARK INTER:                 -11.772
REMARK INTRA:                  -0.805
REMARK UNBOUND:                -0.805
REMARK  Name = 18c.sdf
REMARK  5 active torsions:
REMARK  status: ('A' for Active; 'I' for Inactive)
REMARK    1  A    between atoms: N_7  and  C_12
REMARK    2  A    between atoms: C_9  and  C_10
REMARK    3  A    between atoms: N_11  and  N_19
REMARK    4  A    between atoms: C_12  and  C_13
REMARK    5  A    between atoms: C_20  and  C_22
REMARK                            x       y       z     vdW  Elec       q    Type
REMARK                         _______ _______ _______ _____ _____    ______ ____
ROOT
ATOM      1  C   UNL     1     141.927 -17.703  24.715  0.00  0.00    -0.061 A 
ATOM      2  C   UNL     1     141.893 -19.028  24.296  0.00  0.00    -0.060 A 
ATOM      3  C   UNL     1     142.213 -19.375  22.979  0.00  0.00    -0.038 A 
ATOM      4  C   UNL     1     142.577 -18.351  22.087  0.00  0.00    +0.050 A 
ATOM      5  C   UNL     1     142.667 -17.015  22.502  0.00  0.00    +0.009 A 
ATOM      6  C   UNL     1     142.322 -16.693  23.834  0.00  0.00    -0.052 A 
ATOM      7  N   UNL     1     142.885 -18.373  20.738  0.00  0.00    -0.342 N 
ATOM      8  C   UNL     1     143.246 -17.114  20.324  0.00  0.00    +0.015 A 
ATOM      9  C   UNL     1     143.130 -16.245  21.390  0.00  0.00    +0.020 A 
ENDROOT
BRANCH   9  10
ATOM     10  C   UNL     1     143.427 -14.828  21.370  0.00  0.00    +0.055 C 
ATOM     11  N   UNL     1     143.976 -14.301  20.327  0.00  0.00    -0.187 NA
BRANCH  11  12
ATOM     12  N   UNL     1     144.236 -12.959  20.398  0.00  0.00    -0.203 N 
ATOM     13  C   UNL     1     144.462 -12.241  19.233  0.00  0.00    +0.263 C 
ATOM     14  O   UNL     1     144.425 -12.711  18.096  0.00  0.00    -0.268 OA
ATOM     15  H   UNL     1     144.263 -12.506  21.272  0.00  0.00    +0.000 HD
BRANCH  13  16
ATOM     16  C   UNL     1     144.732 -10.785  19.405  0.00  0.00    +0.038 A 
ATOM     17  C   UNL     1     144.951 -10.205  20.663  0.00  0.00    -0.050 A 
ATOM     18  C   UNL     1     145.204  -8.834  20.766  0.00  0.00    -0.061 A 
ATOM     19  C   UNL     1     145.246  -8.041  19.619  0.00  0.00    -0.062 A 
ATOM     20  C   UNL     1     145.047  -8.615  18.364  0.00  0.00    -0.061 A 
ATOM     21  C   UNL     1     144.797  -9.984  18.257  0.00  0.00    -0.050 A 
ENDBRANCH  13  16
ENDBRANCH  11  12
ENDBRANCH   9  10
BRANCH   7  22
ATOM     22  C   UNL     1     142.741 -19.512  19.831  0.00  0.00    +0.048 C 
BRANCH  22  23
ATOM     23  C   UNL     1     144.053 -20.226  19.618  0.00  0.00    -0.028 A 
ATOM     24  C   UNL     1     144.916 -20.466  20.698  0.00  0.00    -0.055 A 
ATOM     25  C   UNL     1     146.185 -21.007  20.486  0.00  0.00    -0.043 A 
ATOM     26  C   UNL     1     146.592 -21.328  19.194  0.00  0.00    +0.041 A 
ATOM     27  C   UNL     1     145.725 -21.157  18.118  0.00  0.00    -0.043 A 
ATOM     28  C   UNL     1     144.457 -20.609  18.329  0.00  0.00    -0.055 A 
ATOM     29 CL   UNL     1     148.188 -21.913  18.923  0.00  0.00    -0.084 Cl
ENDBRANCH  22  23
ENDBRANCH   7  22
TORSDOF 5
ENDMDL
