MODEL 1
REMARK VINA RESULT:    -9.021      0.000      0.000
REMARK INTER + INTRA:         -11.486
REMARK INTER:                 -11.131
REMARK INTRA:                  -0.355
REMARK UNBOUND:                -0.355
REMARK  Name = 18d.sdf
REMARK  4 active torsions:
REMARK  status: ('A' for Active; 'I' for Inactive)
REMARK    1  A    between atoms: C_9  and  C_10
REMARK    2  A    between atoms: N_11  and  N_12
REMARK    3  A    between atoms: C_13  and  C_15
REMARK    4  A    between atoms: C_16  and  C_17
REMARK                            x       y       z     vdW  Elec       q    Type
REMARK                         _______ _______ _______ _____ _____    ______ ____
ROOT
ATOM      1  C   UNL     1     141.589 -17.504  24.780  0.00  0.00    -0.061 A 
ATOM      2  C   UNL     1     141.706 -18.856  24.489  0.00  0.00    -0.060 A 
ATOM      3  C   UNL     1     142.280 -19.284  23.288  0.00  0.00    -0.037 A 
ATOM      4  C   UNL     1     142.723 -18.315  22.368  0.00  0.00    +0.057 A 
ATOM      5  C   UNL     1     142.630 -16.943  22.650  0.00  0.00    +0.009 A 
ATOM      6  C   UNL     1     142.049 -16.542  23.874  0.00  0.00    -0.052 A 
ATOM      7  N   UNL     1     143.331 -18.454  21.118  0.00  0.00    -0.282 N 
ATOM      8  C   UNL     1     143.572 -17.183  20.628  0.00  0.00    +0.023 A 
ATOM      9  C   UNL     1     143.177 -16.228  21.542  0.00  0.00    +0.020 A 
ATOM     10  C   UNL     1     143.649 -19.657  20.436  0.00  0.00    +0.263 C 
ATOM     11  O   UNL     1     142.915 -20.636  20.612  0.00  0.00    -0.267 OA
ENDROOT
BRANCH  10  12
ATOM     12  C   UNL     1     144.781 -19.769  19.489  0.00  0.00    +0.040 A 
ATOM     13  C   UNL     1     145.951 -19.024  19.693  0.00  0.00    -0.049 A 
ATOM     14  C   UNL     1     146.935 -19.000  18.709  0.00  0.00    -0.061 A 
ATOM     15  C   UNL     1     146.778 -19.759  17.551  0.00  0.00    -0.062 A 
ATOM     16  C   UNL     1     145.654 -20.572  17.387  0.00  0.00    -0.061 A 
ATOM     17  C   UNL     1     144.656 -20.586  18.360  0.00  0.00    -0.049 A 
ENDBRANCH  10  12
BRANCH   9  18
ATOM     18  C   UNL     1     143.307 -14.793  21.353  0.00  0.00    +0.055 C 
ATOM     19  N   UNL     1     144.381 -14.326  20.801  0.00  0.00    -0.187 NA
BRANCH  19  20
ATOM     20  N   UNL     1     144.467 -12.968  20.647  0.00  0.00    -0.203 N 
ATOM     21  C   UNL     1     144.656 -12.437  19.377  0.00  0.00    +0.263 C 
ATOM     22  O   UNL     1     144.759 -13.094  18.341  0.00  0.00    -0.268 OA
ATOM     23  H   UNL     1     144.394 -12.374  21.429  0.00  0.00    +0.000 HD
BRANCH  21  24
ATOM     24  C   UNL     1     144.701 -10.950  19.292  0.00  0.00    +0.038 A 
ATOM     25  C   UNL     1     144.761 -10.277  18.064  0.00  0.00    -0.050 A 
ATOM     26  C   UNL     1     144.825  -8.881  18.034  0.00  0.00    -0.061 A 
ATOM     27  C   UNL     1     144.813  -8.153  19.225  0.00  0.00    -0.062 A 
ATOM     28  C   UNL     1     144.715  -8.814  20.447  0.00  0.00    -0.061 A 
ATOM     29  C   UNL     1     144.655 -10.208  20.482  0.00  0.00    -0.050 A 
ENDBRANCH  21  24
ENDBRANCH  19  20
ENDBRANCH   9  18
TORSDOF 4
ENDMDL
