MODEL 1
REMARK VINA RESULT:    -8.576      0.000      0.000
REMARK INTER + INTRA:         -10.171
REMARK INTER:                 -10.080
REMARK INTRA:                  -0.091
REMARK UNBOUND:                -0.091
REMARK  Name = 1b.sdf
REMARK  3 active torsions:
REMARK  status: ('A' for Active; 'I' for Inactive)
REMARK    1  A    between atoms: N_7  and  C_12
REMARK    2  A    between atoms: C_9  and  C_10
REMARK    3  A    between atoms: C_12  and  C_13
REMARK                            x       y       z     vdW  Elec       q    Type
REMARK                         _______ _______ _______ _____ _____    ______ ____
ROOT
ATOM      1  C   UNL     1     143.856 -14.230  19.897  0.00  0.00    -0.061 A 
ATOM      2  C   UNL     1     143.972 -13.749  21.195  0.00  0.00    -0.060 A 
ATOM      3  C   UNL     1     144.358 -12.427  21.441  0.00  0.00    -0.038 A 
ATOM      4  C   UNL     1     144.623 -11.593  20.341  0.00  0.00    +0.050 A 
ATOM      5  C   UNL     1     144.471 -12.047  19.023  0.00  0.00    +0.010 A 
ATOM      6  C   UNL     1     144.093 -13.389  18.807  0.00  0.00    -0.052 A 
ATOM      7  N   UNL     1     145.063 -10.283  20.267  0.00  0.00    -0.342 N 
ATOM      8  C   UNL     1     145.123  -9.886  18.956  0.00  0.00    +0.016 A 
ATOM      9  C   UNL     1     144.764 -10.951  18.154  0.00  0.00    +0.039 A 
ENDROOT
BRANCH   9  10
ATOM     10  C   UNL     1     144.717 -10.928  16.707  0.00  0.00    +0.152 C 
ATOM     11  O   UNL     1     144.021 -11.682  16.031  0.00  0.00    -0.296 OA
ENDBRANCH   9  10
BRANCH   7  12
ATOM     12  C   UNL     1     145.534  -9.464  21.382  0.00  0.00    +0.048 C 
BRANCH  12  13
ATOM     13  C   UNL     1     145.586  -8.002  21.029  0.00  0.00    -0.025 A 
ATOM     14  C   UNL     1     146.803  -7.314  21.008  0.00  0.00    -0.039 A 
ATOM     15  C   UNL     1     146.798  -5.958  20.721  0.00  0.00    +0.028 A 
ATOM     16  N   UNL     1     145.683  -5.254  20.441  0.00  0.00    -0.263 NA
ATOM     17  C   UNL     1     144.518  -5.935  20.452  0.00  0.00    +0.028 A 
ATOM     18  C   UNL     1     144.419  -7.290  20.732  0.00  0.00    -0.039 A 
ENDBRANCH  12  13
ENDBRANCH   7  12
TORSDOF 3
ENDMDL
