MODEL 1
REMARK VINA RESULT:    -9.332      0.000      0.000
REMARK INTER + INTRA:         -14.505
REMARK INTER:                 -13.696
REMARK INTRA:                  -0.809
REMARK UNBOUND:                -0.809
REMARK  Name = 21f.sdf
REMARK  8 active torsions:
REMARK  status: ('A' for Active; 'I' for Inactive)
REMARK    1  A    between atoms: N_7  and  C_22
REMARK    2  A    between atoms: C_9  and  C_10
REMARK    3  A    between atoms: C_10  and  O_11
REMARK    4  A    between atoms: O_11  and  C_12
REMARK    5  A    between atoms: C_12  and  C_13
REMARK    6  A    between atoms: C_13  and  C_14
REMARK    7  A    between atoms: C_22  and  C_23
REMARK    8  A    between atoms: C_23  and  C_24
REMARK                            x       y       z     vdW  Elec       q    Type
REMARK                         _______ _______ _______ _____ _____    ______ ____
ROOT
ATOM      1  C   UNL     1     141.792 -19.369  21.085  0.00  0.00    -0.061 A 
ATOM      2  C   UNL     1     142.805 -20.291  21.328  0.00  0.00    -0.060 A 
ATOM      3  C   UNL     1     144.155 -19.944  21.182  0.00  0.00    -0.038 A 
ATOM      4  C   UNL     1     144.458 -18.625  20.811  0.00  0.00    +0.050 A 
ATOM      5  C   UNL     1     143.458 -17.659  20.679  0.00  0.00    +0.005 A 
ATOM      6  C   UNL     1     142.106 -18.046  20.777  0.00  0.00    -0.052 A 
ATOM      7  N   UNL     1     145.653 -17.996  20.514  0.00  0.00    -0.339 N 
ATOM      8  C   UNL     1     145.458 -16.638  20.435  0.00  0.00    +0.012 A 
ATOM      9  C   UNL     1     144.107 -16.391  20.585  0.00  0.00    +0.003 A 
ENDROOT
BRANCH   9  10
ATOM     10  C   UNL     1     143.442 -15.071  20.771  0.00  0.00    +0.075 C 
BRANCH  10  11
ATOM     11  O   UNL     1     143.885 -14.092  19.816  0.00  0.00    -0.367 OA
BRANCH  11  12
ATOM     12  C   UNL     1     143.909 -12.767  20.341  0.00  0.00    +0.111 C 
BRANCH  12  13
ATOM     13  C   UNL     1     144.253 -11.726  19.282  0.00  0.00    +0.189 C 
ATOM     14  O   UNL     1     143.923 -11.870  18.104  0.00  0.00    -0.290 OA
BRANCH  13  15
ATOM     15  C   UNL     1     144.927 -10.460  19.697  0.00  0.00    +0.020 A 
ATOM     16  C   UNL     1     145.032  -9.352  18.848  0.00  0.00    -0.050 A 
ATOM     17  C   UNL     1     145.713  -8.206  19.269  0.00  0.00    -0.047 A 
ATOM     18  C   UNL     1     146.298  -8.171  20.533  0.00  0.00    +0.018 A 
ATOM     19  C   UNL     1     146.195  -9.266  21.391  0.00  0.00    -0.047 A 
ATOM     20  C   UNL     1     145.509 -10.407  20.971  0.00  0.00    -0.050 A 
ATOM     21 BR   UNL     1     147.244  -6.633  21.084  0.00  0.00    -0.050 Br
ENDBRANCH  13  15
ENDBRANCH  12  13
ENDBRANCH  11  12
ENDBRANCH  10  11
ENDBRANCH   9  10
BRANCH   7  22
ATOM     22  C   UNL     1     146.890 -18.662  20.118  0.00  0.00    +0.086 C 
BRANCH  22  23
ATOM     23  C   UNL     1     146.959 -19.082  18.667  0.00  0.00    +0.183 C 
ATOM     24  O   UNL     1     146.172 -19.869  18.147  0.00  0.00    -0.290 OA
BRANCH  23  25
ATOM     25  C   UNL     1     148.049 -18.487  17.824  0.00  0.00    +0.019 A 
ATOM     26  C   UNL     1     147.838 -17.386  16.981  0.00  0.00    -0.050 A 
ATOM     27  C   UNL     1     148.869 -16.917  16.157  0.00  0.00    -0.047 A 
ATOM     28  C   UNL     1     150.114 -17.542  16.178  0.00  0.00    +0.018 A 
ATOM     29  C   UNL     1     150.351 -18.608  17.041  0.00  0.00    -0.047 A 
ATOM     30  C   UNL     1     149.323 -19.075  17.866  0.00  0.00    -0.050 A 
ATOM     31 BR   UNL     1     151.478 -16.957  15.008  0.00  0.00    -0.050 Br
ENDBRANCH  23  25
ENDBRANCH  22  23
ENDBRANCH   7  22
TORSDOF 8
ENDMDL
