MODEL 1
REMARK VINA RESULT:    -9.589      0.000      0.000
REMARK INTER + INTRA:         -13.778
REMARK INTER:                 -12.952
REMARK INTRA:                  -0.826
REMARK UNBOUND:                -0.826
REMARK  Name = 22a.sdf
REMARK  7 active torsions:
REMARK  status: ('A' for Active; 'I' for Inactive)
REMARK    1  A    between atoms: N_7  and  C_12
REMARK    2  A    between atoms: C_9  and  C_10
REMARK    3  A    between atoms: N_11  and  N_19
REMARK    4  A    between atoms: C_12  and  C_13
REMARK    5  A    between atoms: C_20  and  C_22
REMARK    6  A    between atoms: C_25  and  O_29
REMARK    7  A    between atoms: O_29  and  C_30
REMARK                            x       y       z     vdW  Elec       q    Type
REMARK                         _______ _______ _______ _____ _____    ______ ____
ROOT
ATOM      1  C   UNL     1     141.745 -17.644  24.616  0.00  0.00    -0.061 A 
ATOM      2  C   UNL     1     141.779 -18.981  24.238  0.00  0.00    -0.060 A 
ATOM      3  C   UNL     1     142.174 -19.352  22.949  0.00  0.00    -0.038 A 
ATOM      4  C   UNL     1     142.546 -18.342  22.045  0.00  0.00    +0.050 A 
ATOM      5  C   UNL     1     142.565 -16.991  22.420  0.00  0.00    +0.009 A 
ATOM      6  C   UNL     1     142.142 -16.645  23.723  0.00  0.00    -0.052 A 
ATOM      7  N   UNL     1     142.927 -18.396  20.717  0.00  0.00    -0.342 N 
ATOM      8  C   UNL     1     143.257 -17.137  20.278  0.00  0.00    +0.015 A 
ATOM      9  C   UNL     1     143.055 -16.237  21.307  0.00  0.00    +0.020 A 
ENDROOT
BRANCH   9  10
ATOM     10  C   UNL     1     143.299 -14.813  21.253  0.00  0.00    +0.055 C 
ATOM     11  N   UNL     1     144.254 -14.351  20.509  0.00  0.00    -0.187 NA
BRANCH  11  12
ATOM     12  N   UNL     1     144.425 -12.993  20.520  0.00  0.00    -0.203 N 
ATOM     13  C   UNL     1     144.511 -12.310  19.316  0.00  0.00    +0.263 C 
ATOM     14  O   UNL     1     144.431 -12.821  18.205  0.00  0.00    -0.268 OA
ATOM     15  H   UNL     1     144.486 -12.505  21.374  0.00  0.00    +0.000 HD
BRANCH  13  16
ATOM     16  C   UNL     1     144.670 -10.828  19.416  0.00  0.00    +0.039 A 
ATOM     17  C   UNL     1     144.714 -10.155  20.641  0.00  0.00    -0.046 A 
ATOM     18  C   UNL     1     144.850  -8.762  20.664  0.00  0.00    -0.019 A 
ATOM     19  C   UNL     1     144.969  -8.033  19.478  0.00  0.00    +0.120 A 
ATOM     20  C   UNL     1     144.946  -8.704  18.257  0.00  0.00    -0.019 A 
ATOM     21  C   UNL     1     144.800 -10.097  18.227  0.00  0.00    -0.046 A 
BRANCH  19  22
ATOM     22  O   UNL     1     145.049  -6.677  19.637  0.00  0.00    -0.495 OA
ATOM     23  C   UNL     1     144.246  -6.111  20.664  0.00  0.00    +0.079 C 
ENDBRANCH  19  22
ENDBRANCH  13  16
ENDBRANCH  11  12
ENDBRANCH   9  10
BRANCH   7  24
ATOM     24  C   UNL     1     142.894 -19.576  19.853  0.00  0.00    +0.048 C 
BRANCH  24  25
ATOM     25  C   UNL     1     144.281 -20.065  19.522  0.00  0.00    -0.028 A 
ATOM     26  C   UNL     1     145.341 -19.867  20.419  0.00  0.00    -0.056 A 
ATOM     27  C   UNL     1     146.647 -20.211  20.063  0.00  0.00    -0.047 A 
ATOM     28  C   UNL     1     146.897 -20.769  18.813  0.00  0.00    +0.018 A 
ATOM     29  C   UNL     1     145.850 -21.028  17.932  0.00  0.00    -0.047 A 
ATOM     30  C   UNL     1     144.545 -20.678  18.287  0.00  0.00    -0.056 A 
ATOM     31 BR   UNL     1     148.676 -21.145  18.294  0.00  0.00    -0.050 Br
ENDBRANCH  24  25
ENDBRANCH   7  24
TORSDOF 6
ENDMDL
