MODEL 1
REMARK VINA RESULT:    -9.547      0.000      0.000
REMARK INTER + INTRA:         -13.775
REMARK INTER:                 -12.895
REMARK INTRA:                  -0.880
REMARK UNBOUND:                -0.880
REMARK  Name = 22c.sdf
REMARK  7 active torsions:
REMARK  status: ('A' for Active; 'I' for Inactive)
REMARK    1  A    between atoms: N_7  and  C_12
REMARK    2  A    between atoms: C_9  and  C_10
REMARK    3  A    between atoms: N_11  and  N_19
REMARK    4  A    between atoms: C_12  and  C_13
REMARK    5  A    between atoms: C_20  and  C_22
REMARK    6  A    between atoms: C_25  and  O_29
REMARK    7  A    between atoms: O_29  and  C_30
REMARK                            x       y       z     vdW  Elec       q    Type
REMARK                         _______ _______ _______ _____ _____    ______ ____
ROOT
ATOM      1  C   UNL     1     141.797 -17.649  24.665  0.00  0.00    -0.061 A 
ATOM      2  C   UNL     1     141.815 -18.978  24.268  0.00  0.00    -0.060 A 
ATOM      3  C   UNL     1     142.199 -19.343  22.969  0.00  0.00    -0.038 A 
ATOM      4  C   UNL     1     142.553 -18.326  22.065  0.00  0.00    +0.050 A 
ATOM      5  C   UNL     1     142.604 -16.983  22.468  0.00  0.00    +0.009 A 
ATOM      6  C   UNL     1     142.208 -16.647  23.783  0.00  0.00    -0.052 A 
ATOM      7  N   UNL     1     142.887 -18.355  20.720  0.00  0.00    -0.342 N 
ATOM      8  C   UNL     1     143.237 -17.091  20.307  0.00  0.00    +0.015 A 
ATOM      9  C   UNL     1     143.097 -16.217  21.367  0.00  0.00    +0.020 A 
ENDROOT
BRANCH   9  10
ATOM     10  C   UNL     1     143.390 -14.798  21.349  0.00  0.00    +0.055 C 
ATOM     11  N   UNL     1     144.009 -14.278  20.341  0.00  0.00    -0.187 NA
BRANCH  11  12
ATOM     12  N   UNL     1     144.257 -12.930  20.412  0.00  0.00    -0.203 N 
ATOM     13  C   UNL     1     144.452 -12.213  19.243  0.00  0.00    +0.263 C 
ATOM     14  O   UNL     1     144.404 -12.685  18.105  0.00  0.00    -0.268 OA
ATOM     15  H   UNL     1     144.296 -12.478  21.285  0.00  0.00    +0.000 HD
BRANCH  13  16
ATOM     16  C   UNL     1     144.698 -10.746  19.398  0.00  0.00    +0.039 A 
ATOM     17  C   UNL     1     144.897 -10.139  20.642  0.00  0.00    -0.046 A 
ATOM     18  C   UNL     1     145.099  -8.755  20.718  0.00  0.00    -0.019 A 
ATOM     19  C   UNL     1     145.133  -7.969  19.562  0.00  0.00    +0.120 A 
ATOM     20  C   UNL     1     144.961  -8.574  18.319  0.00  0.00    -0.019 A 
ATOM     21  C   UNL     1     144.749  -9.957  18.239  0.00  0.00    -0.046 A 
BRANCH  19  22
ATOM     22  O   UNL     1     145.277  -6.626  19.776  0.00  0.00    -0.495 OA
ATOM     23  C   UNL     1     144.240  -5.985  20.511  0.00  0.00    +0.079 C 
ENDBRANCH  19  22
ENDBRANCH  13  16
ENDBRANCH  11  12
ENDBRANCH   9  10
BRANCH   7  24
ATOM     24  C   UNL     1     142.758 -19.489  19.799  0.00  0.00    +0.048 C 
BRANCH  24  25
ATOM     25  C   UNL     1     144.082 -20.167  19.545  0.00  0.00    -0.028 A 
ATOM     26  C   UNL     1     145.005 -20.331  20.589  0.00  0.00    -0.055 A 
ATOM     27  C   UNL     1     146.299 -20.783  20.327  0.00  0.00    -0.043 A 
ATOM     28  C   UNL     1     146.669 -21.106  19.024  0.00  0.00    +0.041 A 
ATOM     29  C   UNL     1     145.735 -21.048  17.993  0.00  0.00    -0.043 A 
ATOM     30  C   UNL     1     144.444 -20.582  18.252  0.00  0.00    -0.055 A 
ATOM     31 CL   UNL     1     148.300 -21.532  18.681  0.00  0.00    -0.084 Cl
ENDBRANCH  24  25
ENDBRANCH   7  24
TORSDOF 6
ENDMDL
