MODEL 1
REMARK VINA RESULT:    -9.584      0.000      0.000
REMARK INTER + INTRA:         -13.913
REMARK INTER:                 -12.946
REMARK INTRA:                  -0.967
REMARK UNBOUND:                -0.967
REMARK  Name = 25a.sdf
REMARK  7 active torsions:
REMARK  status: ('A' for Active; 'I' for Inactive)
REMARK    1  A    between atoms: N_7  and  C_10
REMARK    2  A    between atoms: C_9  and  C_18
REMARK    3  A    between atoms: C_10  and  C_11
REMARK    4  A    between atoms: N_19  and  N_20
REMARK    5  A    between atoms: C_21  and  C_23
REMARK    6  A    between atoms: C_25  and  O_29
REMARK    7  A    between atoms: C_27  and  O_30
REMARK                            x       y       z     vdW  Elec       q    Type
REMARK                         _______ _______ _______ _____ _____    ______ ____
ROOT
ATOM      1  C   UNL     1     145.746 -20.315  20.264  0.00  0.00    -0.061 A 
ATOM      2  C   UNL     1     145.085 -21.230  21.073  0.00  0.00    -0.060 A 
ATOM      3  C   UNL     1     143.954 -20.857  21.813  0.00  0.00    -0.038 A 
ATOM      4  C   UNL     1     143.514 -19.523  21.743  0.00  0.00    +0.050 A 
ATOM      5  C   UNL     1     144.131 -18.601  20.883  0.00  0.00    +0.009 A 
ATOM      6  C   UNL     1     145.265 -19.010  20.142  0.00  0.00    -0.052 A 
ATOM      7  N   UNL     1     142.512 -18.838  22.414  0.00  0.00    -0.342 N 
ATOM      8  C   UNL     1     142.428 -17.557  21.923  0.00  0.00    +0.015 A 
ATOM      9  C   UNL     1     143.401 -17.374  20.960  0.00  0.00    +0.020 A 
ENDROOT
BRANCH   9  10
ATOM     10  C   UNL     1     143.628 -16.161  20.194  0.00  0.00    +0.055 C 
ATOM     11  N   UNL     1     144.303 -15.187  20.715  0.00  0.00    -0.187 NA
BRANCH  11  12
ATOM     12  N   UNL     1     144.466 -14.077  19.925  0.00  0.00    -0.203 N 
ATOM     13  C   UNL     1     144.230 -12.813  20.465  0.00  0.00    +0.263 C 
ATOM     14  O   UNL     1     143.847 -12.584  21.603  0.00  0.00    -0.268 OA
ATOM     15  H   UNL     1     144.746 -14.172  18.986  0.00  0.00    +0.000 HD
BRANCH  13  16
ATOM     16  C   UNL     1     144.466 -11.661  19.543  0.00  0.00    +0.045 A 
ATOM     17  C   UNL     1     144.870 -10.423  20.079  0.00  0.00    -0.008 A 
ATOM     18  C   UNL     1     145.134  -9.360  19.217  0.00  0.00    +0.121 A 
ATOM     19  C   UNL     1     145.008  -9.506  17.837  0.00  0.00    +0.021 A 
ATOM     20  C   UNL     1     144.618 -10.736  17.322  0.00  0.00    +0.121 A 
ATOM     21  C   UNL     1     144.348 -11.812  18.160  0.00  0.00    -0.008 A 
BRANCH  18  22
ATOM     22  O   UNL     1     145.540  -8.140  19.675  0.00  0.00    -0.507 OA
ATOM     23  H   UNL     1     145.644  -7.427  19.076  0.00  0.00    +0.000 HD
ENDBRANCH  18  22
BRANCH  20  24
ATOM     24  O   UNL     1     144.496 -10.947  15.981  0.00  0.00    -0.507 OA
ATOM     25  H   UNL     1     143.679 -10.783  15.553  0.00  0.00    +0.000 HD
ENDBRANCH  20  24
ENDBRANCH  13  16
ENDBRANCH  11  12
ENDBRANCH   9  10
BRANCH   7  26
ATOM     26  C   UNL     1     141.746 -19.297  23.580  0.00  0.00    +0.048 C 
BRANCH  26  27
ATOM     27  C   UNL     1     142.051 -18.490  24.819  0.00  0.00    -0.028 A 
ATOM     28  C   UNL     1     143.247 -18.698  25.521  0.00  0.00    -0.056 A 
ATOM     29  C   UNL     1     143.445 -18.114  26.772  0.00  0.00    -0.047 A 
ATOM     30  C   UNL     1     142.462 -17.290  27.313  0.00  0.00    +0.018 A 
ATOM     31  C   UNL     1     141.320 -16.978  26.579  0.00  0.00    -0.047 A 
ATOM     32  C   UNL     1     141.116 -17.576  25.332  0.00  0.00    -0.056 A 
ATOM     33 BR   UNL     1     142.645 -16.652  29.083  0.00  0.00    -0.050 Br
ENDBRANCH  26  27
ENDBRANCH   7  26
TORSDOF 7
ENDMDL
