MODEL 1
REMARK VINA RESULT:    -9.426      0.000      0.000
REMARK INTER + INTRA:         -13.817
REMARK INTER:                 -12.732
REMARK INTRA:                  -1.085
REMARK UNBOUND:                -1.085
REMARK  Name = 26a.sdf
REMARK  7 active torsions:
REMARK  status: ('A' for Active; 'I' for Inactive)
REMARK    1  A    between atoms: N_7  and  C_10
REMARK    2  A    between atoms: C_9  and  C_18
REMARK    3  A    between atoms: C_10  and  C_11
REMARK    4  A    between atoms: N_19  and  N_20
REMARK    5  A    between atoms: C_21  and  C_23
REMARK    6  A    between atoms: C_26  and  O_29
REMARK    7  A    between atoms: C_28  and  O_30
REMARK                            x       y       z     vdW  Elec       q    Type
REMARK                         _______ _______ _______ _____ _____    ______ ____
ROOT
ATOM      1  C   UNL     1     141.926 -17.448  24.629  0.00  0.00    -0.061 A 
ATOM      2  C   UNL     1     141.979 -18.813  24.370  0.00  0.00    -0.060 A 
ATOM      3  C   UNL     1     142.327 -19.291  23.103  0.00  0.00    -0.038 A 
ATOM      4  C   UNL     1     142.631 -18.358  22.096  0.00  0.00    +0.050 A 
ATOM      5  C   UNL     1     142.631 -16.980  22.349  0.00  0.00    +0.009 A 
ATOM      6  C   UNL     1     142.257 -16.525  23.633  0.00  0.00    -0.052 A 
ATOM      7  N   UNL     1     142.950 -18.522  20.761  0.00  0.00    -0.342 N 
ATOM      8  C   UNL     1     143.231 -17.304  20.199  0.00  0.00    +0.015 A 
ATOM      9  C   UNL     1     143.047 -16.321  21.150  0.00  0.00    +0.020 A 
ENDROOT
BRANCH   9  10
ATOM     10  C   UNL     1     143.243 -14.902  20.943  0.00  0.00    +0.055 C 
ATOM     11  N   UNL     1     144.368 -14.474  20.469  0.00  0.00    -0.187 NA
BRANCH  11  12
ATOM     12  N   UNL     1     144.456 -13.123  20.325  0.00  0.00    -0.203 N 
ATOM     13  C   UNL     1     144.586 -12.547  19.075  0.00  0.00    +0.267 C 
ATOM     14  O   UNL     1     144.621 -13.168  18.012  0.00  0.00    -0.268 OA
ATOM     15  H   UNL     1     144.426 -12.547  21.122  0.00  0.00    +0.000 HD
BRANCH  13  16
ATOM     16  C   UNL     1     144.698 -11.049  19.053  0.00  0.00    +0.080 A 
ATOM     17  C   UNL     1     144.781 -10.389  20.291  0.00  0.00    -0.043 A 
ATOM     18  C   UNL     1     144.872  -8.997  20.362  0.00  0.00    -0.019 A 
ATOM     19  C   UNL     1     144.883  -8.257  19.185  0.00  0.00    +0.120 A 
ATOM     20  C   UNL     1     144.811  -8.883  17.947  0.00  0.00    +0.022 A 
ATOM     21  C   UNL     1     144.717 -10.277  17.879  0.00  0.00    +0.132 A 
BRANCH  19  22
ATOM     22  O   UNL     1     144.958  -6.896  19.200  0.00  0.00    -0.507 OA
ATOM     23  H   UNL     1     144.288  -6.385  18.790  0.00  0.00    +0.000 HD
ENDBRANCH  19  22
BRANCH  21  24
ATOM     24  O   UNL     1     144.640 -10.865  16.641  0.00  0.00    -0.506 OA
ATOM     25  H   UNL     1     143.820 -11.193  16.329  0.00  0.00    +0.000 HD
ENDBRANCH  21  24
ENDBRANCH  13  16
ENDBRANCH  11  12
ENDBRANCH   9  10
BRANCH   7  26
ATOM     26  C   UNL     1     142.892 -19.768  20.000  0.00  0.00    +0.048 C 
BRANCH  26  27
ATOM     27  C   UNL     1     144.265 -20.240  19.595  0.00  0.00    -0.028 A 
ATOM     28  C   UNL     1     145.320 -20.238  20.519  0.00  0.00    -0.056 A 
ATOM     29  C   UNL     1     146.617 -20.563  20.118  0.00  0.00    -0.047 A 
ATOM     30  C   UNL     1     146.864 -20.905  18.791  0.00  0.00    +0.018 A 
ATOM     31  C   UNL     1     145.819 -20.965  17.871  0.00  0.00    -0.047 A 
ATOM     32  C   UNL     1     144.523 -20.635  18.273  0.00  0.00    -0.056 A 
ATOM     33 BR   UNL     1     148.634 -21.253  18.228  0.00  0.00    -0.050 Br
ENDBRANCH  26  27
ENDBRANCH   7  26
TORSDOF 7
ENDMDL
