MODEL 1
REMARK VINA RESULT:    -9.454      0.000      0.000
REMARK INTER + INTRA:         -13.776
REMARK INTER:                 -12.771
REMARK INTRA:                  -1.005
REMARK UNBOUND:                -1.005
REMARK  Name = 26c.sdf
REMARK  7 active torsions:
REMARK  status: ('A' for Active; 'I' for Inactive)
REMARK    1  A    between atoms: N_7  and  C_10
REMARK    2  A    between atoms: C_9  and  C_18
REMARK    3  A    between atoms: C_10  and  C_11
REMARK    4  A    between atoms: N_19  and  N_20
REMARK    5  A    between atoms: C_21  and  C_23
REMARK    6  A    between atoms: C_26  and  O_29
REMARK    7  A    between atoms: C_28  and  O_30
REMARK                            x       y       z     vdW  Elec       q    Type
REMARK                         _______ _______ _______ _____ _____    ______ ____
ROOT
ATOM      1  C   UNL     1     141.952 -17.555  24.662  0.00  0.00    -0.061 A 
ATOM      2  C   UNL     1     142.001 -18.908  24.346  0.00  0.00    -0.060 A 
ATOM      3  C   UNL     1     142.366 -19.336  23.065  0.00  0.00    -0.038 A 
ATOM      4  C   UNL     1     142.683 -18.365  22.098  0.00  0.00    +0.050 A 
ATOM      5  C   UNL     1     142.696 -16.998  22.413  0.00  0.00    +0.009 A 
ATOM      6  C   UNL     1     142.311 -16.596  23.711  0.00  0.00    -0.052 A 
ATOM      7  N   UNL     1     143.005 -18.472  20.757  0.00  0.00    -0.342 N 
ATOM      8  C   UNL     1     143.311 -17.233  20.255  0.00  0.00    +0.015 A 
ATOM      9  C   UNL     1     143.138 -16.293  21.251  0.00  0.00    +0.020 A 
ENDROOT
BRANCH   9  10
ATOM     10  C   UNL     1     143.370 -14.870  21.115  0.00  0.00    +0.055 C 
ATOM     11  N   UNL     1     144.277 -14.454  20.289  0.00  0.00    -0.187 NA
BRANCH  11  12
ATOM     12  N   UNL     1     144.425 -13.096  20.240  0.00  0.00    -0.203 N 
ATOM     13  C   UNL     1     144.514 -12.429  19.029  0.00  0.00    +0.267 C 
ATOM     14  O   UNL     1     144.472 -12.968  17.927  0.00  0.00    -0.268 OA
ATOM     15  H   UNL     1     144.470 -12.583  21.079  0.00  0.00    +0.000 HD
BRANCH  13  16
ATOM     16  C   UNL     1     144.672 -10.938  19.119  0.00  0.00    +0.080 A 
ATOM     17  C   UNL     1     144.856 -10.380  20.397  0.00  0.00    -0.043 A 
ATOM     18  C   UNL     1     145.007  -8.999  20.564  0.00  0.00    -0.019 A 
ATOM     19  C   UNL     1     144.976  -8.172  19.449  0.00  0.00    +0.120 A 
ATOM     20  C   UNL     1     144.806  -8.697  18.174  0.00  0.00    +0.022 A 
ATOM     21  C   UNL     1     144.653 -10.078  18.008  0.00  0.00    +0.132 A 
BRANCH  19  22
ATOM     22  O   UNL     1     145.108  -6.819  19.558  0.00  0.00    -0.507 OA
ATOM     23  H   UNL     1     145.000  -6.275  18.802  0.00  0.00    +0.000 HD
ENDBRANCH  19  22
BRANCH  21  24
ATOM     24  O   UNL     1     144.480 -10.568  16.739  0.00  0.00    -0.506 OA
ATOM     25  H   UNL     1     144.936 -10.177  16.019  0.00  0.00    +0.000 HD
ENDBRANCH  21  24
ENDBRANCH  13  16
ENDBRANCH  11  12
ENDBRANCH   9  10
BRANCH   7  26
ATOM     26  C   UNL     1     142.912 -19.671  19.923  0.00  0.00    +0.048 C 
BRANCH  26  27
ATOM     27  C   UNL     1     144.271 -20.150  19.475  0.00  0.00    -0.028 A 
ATOM     28  C   UNL     1     145.377 -20.049  20.331  0.00  0.00    -0.055 A 
ATOM     29  C   UNL     1     146.659 -20.350  19.871  0.00  0.00    -0.043 A 
ATOM     30  C   UNL     1     146.841 -20.775  18.557  0.00  0.00    +0.041 A 
ATOM     31  C   UNL     1     145.746 -20.955  17.717  0.00  0.00    -0.043 A 
ATOM     32  C   UNL     1     144.463 -20.646  18.175  0.00  0.00    -0.055 A 
ATOM     33 CL   UNL     1     148.433 -21.045  17.962  0.00  0.00    -0.084 Cl
ENDBRANCH  26  27
ENDBRANCH   7  26
TORSDOF 7
ENDMDL
