MODEL 1
REMARK VINA RESULT:    -9.265      0.000      0.000
REMARK INTER + INTRA:         -11.211
REMARK INTER:                 -11.161
REMARK INTRA:                  -0.050
REMARK UNBOUND:                -0.050
REMARK  Name = 4b.sdf
REMARK  4 active torsions:
REMARK  status: ('A' for Active; 'I' for Inactive)
REMARK    1  A    between atoms: N_7  and  C_11
REMARK    2  A    between atoms: C_9  and  C_10
REMARK    3  A    between atoms: C_10  and  O_18
REMARK    4  A    between atoms: C_11  and  C_12
REMARK                            x       y       z     vdW  Elec       q    Type
REMARK                         _______ _______ _______ _____ _____    ______ ____
ROOT
ATOM      1  C   UNL     1     143.995 -14.322  19.688  0.00  0.00    -0.061 A 
ATOM      2  C   UNL     1     143.950 -13.848  20.995  0.00  0.00    -0.060 A 
ATOM      3  C   UNL     1     144.210 -12.504  21.291  0.00  0.00    -0.038 A 
ATOM      4  C   UNL     1     144.546 -11.638  20.236  0.00  0.00    +0.050 A 
ATOM      5  C   UNL     1     144.526 -12.084  18.908  0.00  0.00    +0.005 A 
ATOM      6  C   UNL     1     144.260 -13.445  18.638  0.00  0.00    -0.052 A 
ATOM      7  N   UNL     1     144.951 -10.312  20.203  0.00  0.00    -0.342 N 
ATOM      8  C   UNL     1     145.083  -9.909  18.894  0.00  0.00    +0.011 A 
ATOM      9  C   UNL     1     144.807 -10.966  18.062  0.00  0.00    +0.003 A 
ENDROOT
BRANCH   9  10
ATOM     10  C   UNL     1     144.839 -10.982  16.571  0.00  0.00    +0.071 C 
BRANCH  10  11
ATOM     11  O   UNL     1     143.744 -11.707  16.022  0.00  0.00    -0.390 OA
ATOM     12  H   UNL     1     144.079 -12.395  15.426  0.00  0.00    +0.000 HD
ENDBRANCH  10  11
ENDBRANCH   9  10
BRANCH   7  13
ATOM     13  C   UNL     1     145.357  -9.480  21.340  0.00  0.00    +0.048 C 
BRANCH  13  14
ATOM     14  C   UNL     1     145.483  -8.024  20.963  0.00  0.00    -0.025 A 
ATOM     15  C   UNL     1     146.731  -7.396  20.972  0.00  0.00    -0.039 A 
ATOM     16  C   UNL     1     146.794  -6.030  20.747  0.00  0.00    +0.028 A 
ATOM     17  N   UNL     1     145.718  -5.264  20.474  0.00  0.00    -0.263 NA
ATOM     18  C   UNL     1     144.525  -5.893  20.417  0.00  0.00    +0.028 A 
ATOM     19  C   UNL     1     144.359  -7.252  20.645  0.00  0.00    -0.039 A 
ENDBRANCH  13  14
ENDBRANCH   7  13
TORSDOF 4
ENDMDL
