MODEL 1
REMARK VINA RESULT:    -7.743      0.000      0.000
REMARK INTER + INTRA:         -10.322
REMARK INTER:                 -10.007
REMARK INTRA:                  -0.315
REMARK UNBOUND:                -0.315
REMARK  Name = 5a.sdf
REMARK  6 active torsions:
REMARK  status: ('A' for Active; 'I' for Inactive)
REMARK    1  A    between atoms: N_7  and  C_12
REMARK    2  A    between atoms: C_9  and  C_10
REMARK    3  A    between atoms: C_11  and  C_20
REMARK    4  A    between atoms: C_12  and  C_13
REMARK    5  A    between atoms: C_20  and  O_21
REMARK    6  A    between atoms: O_21  and  C_23
REMARK                            x       y       z     vdW  Elec       q    Type
REMARK                         _______ _______ _______ _____ _____    ______ ____
ROOT
ATOM      1  C   UNL     1     141.870 -17.730  24.561  0.00  0.00    -0.061 A 
ATOM      2  C   UNL     1     142.097 -19.082  24.314  0.00  0.00    -0.060 A 
ATOM      3  C   UNL     1     142.617 -19.513  23.082  0.00  0.00    -0.038 A 
ATOM      4  C   UNL     1     142.884 -18.552  22.084  0.00  0.00    +0.050 A 
ATOM      5  C   UNL     1     142.720 -17.180  22.344  0.00  0.00    +0.007 A 
ATOM      6  C   UNL     1     142.200 -16.780  23.595  0.00  0.00    -0.052 A 
ATOM      7  N   UNL     1     143.301 -18.659  20.766  0.00  0.00    -0.342 N 
ATOM      8  C   UNL     1     143.497 -17.392  20.239  0.00  0.00    +0.013 A 
ATOM      9  C   UNL     1     143.157 -16.453  21.192  0.00  0.00    +0.000 A 
ENDROOT
BRANCH   9  10
ATOM     10  C   UNL     1     143.216 -15.014  21.087  0.00  0.00    -0.046 C 
ATOM     11  C   UNL     1     143.940 -14.298  20.214  0.00  0.00    +0.023 C 
BRANCH  11  12
ATOM     12  C   UNL     1     144.035 -12.810  20.115  0.00  0.00    +0.332 C 
ATOM     13  O   UNL     1     143.722 -12.230  19.093  0.00  0.00    -0.246 OA
BRANCH  12  14
ATOM     14  O   UNL     1     144.499 -12.213  21.244  0.00  0.00    -0.465 OA
ATOM     15  C   UNL     1     145.064 -10.910  21.040  0.00  0.00    +0.082 C 
ENDBRANCH  12  14
ENDBRANCH  11  12
ENDBRANCH   9  10
BRANCH   7  16
ATOM     16  C   UNL     1     143.380 -19.889  19.963  0.00  0.00    +0.048 C 
BRANCH  16  17
ATOM     17  C   UNL     1     144.697 -20.009  19.234  0.00  0.00    -0.028 A 
ATOM     18  C   UNL     1     145.827 -19.318  19.694  0.00  0.00    -0.056 A 
ATOM     19  C   UNL     1     146.979 -19.243  18.910  0.00  0.00    -0.047 A 
ATOM     20  C   UNL     1     147.020 -19.891  17.679  0.00  0.00    +0.018 A 
ATOM     21  C   UNL     1     145.951 -20.680  17.261  0.00  0.00    -0.047 A 
ATOM     22  C   UNL     1     144.793 -20.743  18.040  0.00  0.00    -0.056 A 
ATOM     23 BR   UNL     1     148.502 -19.637  16.534  0.00  0.00    -0.050 Br
ENDBRANCH  16  17
ENDBRANCH   7  16
TORSDOF 5
ENDMDL
