MODEL 1
REMARK VINA RESULT:    -7.646      0.000      0.000
REMARK INTER + INTRA:          -9.193
REMARK INTER:                  -8.987
REMARK INTRA:                  -0.206
REMARK UNBOUND:                -0.206
REMARK  Name = 7.sdf
REMARK  4 active torsions:
REMARK  status: ('A' for Active; 'I' for Inactive)
REMARK    1  A    between atoms: C_9  and  C_10
REMARK    2  A    between atoms: C_10  and  C_11
REMARK    3  A    between atoms: C_11  and  O_13
REMARK    4  A    between atoms: O_13  and  C_14
REMARK                            x       y       z     vdW  Elec       q    Type
REMARK                         _______ _______ _______ _____ _____    ______ ____
ROOT
ATOM      1  C   UNL     1     144.492 -12.260  20.449  0.00  0.00    -0.061 A 
ATOM      2  C   UNL     1     144.248 -12.651  19.134  0.00  0.00    -0.060 A 
ATOM      3  C   UNL     1     144.310 -11.726  18.088  0.00  0.00    -0.038 A 
ATOM      4  C   UNL     1     144.635 -10.402  18.408  0.00  0.00    +0.047 A 
ATOM      5  C   UNL     1     144.902  -9.980  19.711  0.00  0.00    +0.003 A 
ATOM      6  C   UNL     1     144.819 -10.932  20.750  0.00  0.00    -0.052 A 
ATOM      7  N   UNL     1     144.756  -9.302  17.593  0.00  0.00    -0.360 N 
ATOM      8  C   UNL     1     145.131  -8.209  18.324  0.00  0.00    +0.006 A 
ATOM      9  C   UNL     1     145.237  -8.586  19.651  0.00  0.00    -0.012 A 
ATOM     10  H   UNL     1     144.597  -9.301  16.621  0.00  0.00    +0.000 HD
ENDROOT
BRANCH   9  11
ATOM     11  C   UNL     1     145.675  -7.709  20.783  0.00  0.00    +0.072 C 
BRANCH  11  12
ATOM     12  C   UNL     1     145.227  -6.267  20.664  0.00  0.00    +0.311 C 
ATOM     13  O   UNL     1     144.078  -5.855  20.603  0.00  0.00    -0.250 OA
BRANCH  12  14
ATOM     14  O   UNL     1     146.340  -5.470  20.615  0.00  0.00    -0.468 OA
ATOM     15  C   UNL     1     147.502  -6.015  21.245  0.00  0.00    +0.082 C 
ENDBRANCH  12  14
ENDBRANCH  11  12
ENDBRANCH   9  11
TORSDOF 3
ENDMDL
