MODEL 1
REMARK VINA RESULT:    -9.135      0.000      0.000
REMARK INTER + INTRA:         -10.959
REMARK INTER:                 -10.737
REMARK INTRA:                  -0.221
REMARK UNBOUND:                -0.221
REMARK  Name = 8.sdf
REMARK  3 active torsions:
REMARK  status: ('A' for Active; 'I' for Inactive)
REMARK    1  A    between atoms: C_9  and  C_10
REMARK    2  A    between atoms: N_11  and  N_12
REMARK    3  A    between atoms: C_13  and  C_15
REMARK                            x       y       z     vdW  Elec       q    Type
REMARK                         _______ _______ _______ _____ _____    ______ ____
ROOT
ATOM      1  C   UNL     1     143.884 -12.630  18.793  0.00  0.00    +0.055 C 
ATOM      2  N   UNL     1     144.744 -13.546  19.093  0.00  0.00    -0.187 NA
ENDROOT
BRANCH   1  11
ATOM      3  C   UNL     1     145.310  -8.850  21.205  0.00  0.00    -0.061 A 
ATOM      4  C   UNL     1     145.712  -7.818  20.361  0.00  0.00    -0.060 A 
ATOM      5  C   UNL     1     145.654  -7.963  18.973  0.00  0.00    -0.038 A 
ATOM      6  C   UNL     1     145.187  -9.182  18.466  0.00  0.00    +0.047 A 
ATOM      7  C   UNL     1     144.779 -10.240  19.283  0.00  0.00    +0.008 A 
ATOM      8  C   UNL     1     144.841 -10.063  20.682  0.00  0.00    -0.052 A 
ATOM      9  N   UNL     1     145.033  -9.592  17.162  0.00  0.00    -0.360 N 
ATOM     10  C   UNL     1     144.553 -10.869  17.126  0.00  0.00    +0.011 A 
ATOM     11  C   UNL     1     144.377 -11.316  18.424  0.00  0.00    +0.020 A 
ATOM     12  H   UNL     1     145.238  -9.043  16.371  0.00  0.00    +0.000 HD
ENDBRANCH   1  11
BRANCH   2  13
ATOM     13  N   UNL     1     144.269 -14.777  19.446  0.00  0.00    -0.203 N 
ATOM     14  C   UNL     1     143.833 -14.960  20.753  0.00  0.00    +0.263 C 
ATOM     15  O   UNL     1     143.829 -14.089  21.619  0.00  0.00    -0.268 OA
ATOM     16  H   UNL     1     144.237 -15.513  18.794  0.00  0.00    +0.000 HD
BRANCH  14  17
ATOM     17  C   UNL     1     143.315 -16.312  21.108  0.00  0.00    +0.038 A 
ATOM     18  C   UNL     1     143.349 -17.392  20.217  0.00  0.00    -0.049 A 
ATOM     19  C   UNL     1     142.892 -18.652  20.628  0.00  0.00    -0.047 A 
ATOM     20  C   UNL     1     142.410 -18.831  21.924  0.00  0.00    +0.018 A 
ATOM     21  C   UNL     1     142.378 -17.765  22.821  0.00  0.00    -0.047 A 
ATOM     22  C   UNL     1     142.835 -16.509  22.412  0.00  0.00    -0.049 A 
ATOM     23 BR   UNL     1     141.815 -20.537  22.477  0.00  0.00    -0.050 Br
ENDBRANCH  14  17
ENDBRANCH   2  13
TORSDOF 3
ENDMDL
