MODEL 1
REMARK VINA RESULT:    -9.614      0.000      0.000
REMARK INTER + INTRA:         -13.260
REMARK INTER:                 -12.425
REMARK INTRA:                  -0.836
REMARK UNBOUND:                -0.836
REMARK  Name = 8a.sdf
REMARK  5 active torsions:
REMARK  status: ('A' for Active; 'I' for Inactive)
REMARK    1  A    between atoms: N_7  and  C_12
REMARK    2  A    between atoms: C_9  and  C_10
REMARK    3  A    between atoms: N_11  and  N_20
REMARK    4  A    between atoms: C_12  and  C_13
REMARK    5  A    between atoms: C_21  and  C_23
REMARK                            x       y       z     vdW  Elec       q    Type
REMARK                         _______ _______ _______ _____ _____    ______ ____
ROOT
ATOM      1  C   UNL     1     141.860 -17.784  24.614  0.00  0.00    -0.061 A 
ATOM      2  C   UNL     1     141.884 -19.112  24.205  0.00  0.00    -0.060 A 
ATOM      3  C   UNL     1     142.254 -19.457  22.901  0.00  0.00    -0.038 A 
ATOM      4  C   UNL     1     142.612 -18.428  22.014  0.00  0.00    +0.050 A 
ATOM      5  C   UNL     1     142.639 -17.087  22.418  0.00  0.00    +0.009 A 
ATOM      6  C   UNL     1     142.241 -16.767  23.735  0.00  0.00    -0.052 A 
ATOM      7  N   UNL     1     142.970 -18.453  20.679  0.00  0.00    -0.342 N 
ATOM      8  C   UNL     1     143.294 -17.186  20.261  0.00  0.00    +0.015 A 
ATOM      9  C   UNL     1     143.109 -16.310  21.312  0.00  0.00    +0.020 A 
ENDROOT
BRANCH   9  10
ATOM     10  C   UNL     1     143.353 -14.887  21.285  0.00  0.00    +0.055 C 
ATOM     11  N   UNL     1     144.210 -14.393  20.448  0.00  0.00    -0.187 NA
BRANCH  11  12
ATOM     12  N   UNL     1     144.383 -13.039  20.498  0.00  0.00    -0.203 N 
ATOM     13  C   UNL     1     144.555 -12.329  19.316  0.00  0.00    +0.263 C 
ATOM     14  O   UNL     1     144.555 -12.812  18.192  0.00  0.00    -0.268 OA
ATOM     15  H   UNL     1     144.387 -12.570  21.363  0.00  0.00    +0.000 HD
BRANCH  13  16
ATOM     16  C   UNL     1     144.712 -10.853  19.471  0.00  0.00    +0.038 A 
ATOM     17  C   UNL     1     144.773  -9.980  18.378  0.00  0.00    -0.049 A 
ATOM     18  C   UNL     1     144.922  -8.605  18.586  0.00  0.00    -0.047 A 
ATOM     19  C   UNL     1     144.999  -8.103  19.887  0.00  0.00    +0.018 A 
ATOM     20  C   UNL     1     144.916  -8.958  20.981  0.00  0.00    -0.047 A 
ATOM     21  C   UNL     1     144.766 -10.332  20.774  0.00  0.00    -0.049 A 
ATOM     22 BR   UNL     1     145.205  -6.245  20.161  0.00  0.00    -0.050 Br
ENDBRANCH  13  16
ENDBRANCH  11  12
ENDBRANCH   9  10
BRANCH   7  23
ATOM     23  C   UNL     1     142.916 -19.613  19.791  0.00  0.00    +0.048 C 
BRANCH  23  24
ATOM     24  C   UNL     1     144.290 -20.174  19.518  0.00  0.00    -0.028 A 
ATOM     25  C   UNL     1     145.279 -20.155  20.513  0.00  0.00    -0.056 A 
ATOM     26  C   UNL     1     146.580 -20.574  20.228  0.00  0.00    -0.047 A 
ATOM     27  C   UNL     1     146.896 -21.028  18.951  0.00  0.00    +0.018 A 
ATOM     28  C   UNL     1     145.914 -21.103  17.965  0.00  0.00    -0.047 A 
ATOM     29  C   UNL     1     144.615 -20.678  18.249  0.00  0.00    -0.056 A 
ATOM     30 BR   UNL     1     148.676 -21.513  18.542  0.00  0.00    -0.050 Br
ENDBRANCH  23  24
ENDBRANCH   7  23
TORSDOF 5
ENDMDL
