MODEL 1
REMARK VINA RESULT:    -9.482      0.000      0.000
REMARK INTER + INTRA:         -11.953
REMARK INTER:                 -11.699
REMARK INTRA:                  -0.254
REMARK UNBOUND:                -0.254
REMARK  Name = 8d.sdf
REMARK  4 active torsions:
REMARK  status: ('A' for Active; 'I' for Inactive)
REMARK    1  A    between atoms: C_9  and  C_10
REMARK    2  A    between atoms: N_11  and  N_19
REMARK    3  A    between atoms: C_12  and  C_13
REMARK    4  A    between atoms: C_20  and  C_22
REMARK                            x       y       z     vdW  Elec       q    Type
REMARK                         _______ _______ _______ _____ _____    ______ ____
ROOT
ATOM      1  C   UNL     1     141.739 -17.976  24.280  0.00  0.00    -0.061 A 
ATOM      2  C   UNL     1     141.907 -19.275  23.819  0.00  0.00    -0.060 A 
ATOM      3  C   UNL     1     142.611 -19.531  22.640  0.00  0.00    -0.037 A 
ATOM      4  C   UNL     1     143.139 -18.442  21.920  0.00  0.00    +0.057 A 
ATOM      5  C   UNL     1     142.999 -17.124  22.378  0.00  0.00    +0.009 A 
ATOM      6  C   UNL     1     142.282 -16.894  23.575  0.00  0.00    -0.052 A 
ATOM      7  N   UNL     1     143.886 -18.406  20.745  0.00  0.00    -0.282 N 
ATOM      8  C   UNL     1     144.172 -17.083  20.464  0.00  0.00    +0.023 A 
ATOM      9  C   UNL     1     143.664 -16.264  21.452  0.00  0.00    +0.020 A 
ATOM     10  C   UNL     1     144.296 -19.506  19.951  0.00  0.00    +0.263 C 
ATOM     11  O   UNL     1     143.581 -20.511  19.945  0.00  0.00    -0.267 OA
ENDROOT
BRANCH  10  12
ATOM     12  C   UNL     1     145.521 -19.479  19.112  0.00  0.00    +0.040 A 
ATOM     13  C   UNL     1     146.604 -18.662  19.467  0.00  0.00    -0.049 A 
ATOM     14  C   UNL     1     147.691 -18.532  18.604  0.00  0.00    -0.061 A 
ATOM     15  C   UNL     1     147.718 -19.253  17.412  0.00  0.00    -0.062 A 
ATOM     16  C   UNL     1     146.681 -20.135  17.099  0.00  0.00    -0.061 A 
ATOM     17  C   UNL     1     145.585 -20.257  17.952  0.00  0.00    -0.049 A 
ENDBRANCH  10  12
BRANCH   9  18
ATOM     18  C   UNL     1     143.795 -14.819  21.481  0.00  0.00    +0.055 C 
ATOM     19  N   UNL     1     144.360 -14.222  20.482  0.00  0.00    -0.187 NA
BRANCH  19  20
ATOM     20  N   UNL     1     144.457 -12.858  20.549  0.00  0.00    -0.203 N 
ATOM     21  C   UNL     1     144.642 -12.129  19.378  0.00  0.00    +0.263 C 
ATOM     22  O   UNL     1     144.726 -12.611  18.251  0.00  0.00    -0.268 OA
ATOM     23  H   UNL     1     144.396 -12.397  21.416  0.00  0.00    +0.000 HD
BRANCH  21  24
ATOM     24  C   UNL     1     144.704 -10.647  19.534  0.00  0.00    +0.038 A 
ATOM     25  C   UNL     1     144.738  -9.780  18.433  0.00  0.00    -0.049 A 
ATOM     26  C   UNL     1     144.832  -8.398  18.630  0.00  0.00    -0.047 A 
ATOM     27  C   UNL     1     144.879  -7.882  19.924  0.00  0.00    +0.018 A 
ATOM     28  C   UNL     1     144.802  -8.729  21.027  0.00  0.00    -0.047 A 
ATOM     29  C   UNL     1     144.710 -10.110  20.831  0.00  0.00    -0.049 A 
ATOM     30 BR   UNL     1     145.052  -6.017  20.183  0.00  0.00    -0.050 Br
ENDBRANCH  21  24
ENDBRANCH  19  20
ENDBRANCH   9  18
TORSDOF 4
ENDMDL
