MODEL 1
REMARK VINA RESULT:    -9.484      0.000      0.000
REMARK INTER + INTRA:         -13.089
REMARK INTER:                 -12.257
REMARK INTRA:                  -0.832
REMARK UNBOUND:                -0.832
REMARK  Name = 9a.sdf
REMARK  5 active torsions:
REMARK  status: ('A' for Active; 'I' for Inactive)
REMARK    1  A    between atoms: N_7  and  C_11
REMARK    2  A    between atoms: C_9  and  C_10
REMARK    3  A    between atoms: C_11  and  C_12
REMARK    4  A    between atoms: C_19  and  C_20
REMARK    5  A    between atoms: C_20  and  C_21
REMARK                            x       y       z     vdW  Elec       q    Type
REMARK                         _______ _______ _______ _____ _____    ______ ____
ROOT
ATOM      1  C   UNL     1     141.946 -17.740  24.708  0.00  0.00    -0.061 A 
ATOM      2  C   UNL     1     141.995 -19.055  24.260  0.00  0.00    -0.060 A 
ATOM      3  C   UNL     1     142.351 -19.354  22.941  0.00  0.00    -0.038 A 
ATOM      4  C   UNL     1     142.664 -18.291  22.076  0.00  0.00    +0.050 A 
ATOM      5  C   UNL     1     142.662 -16.962  22.517  0.00  0.00    +0.007 A 
ATOM      6  C   UNL     1     142.285 -16.689  23.852  0.00  0.00    -0.052 A 
ATOM      7  N   UNL     1     143.000 -18.269  20.734  0.00  0.00    -0.342 N 
ATOM      8  C   UNL     1     143.279 -16.978  20.342  0.00  0.00    +0.013 A 
ATOM      9  C   UNL     1     143.079 -16.146  21.423  0.00  0.00    +0.000 A 
ENDROOT
BRANCH   9  10
ATOM     10  C   UNL     1     143.268 -14.726  21.451  0.00  0.00    -0.049 C 
ATOM     11  C   UNL     1     144.060 -14.031  20.621  0.00  0.00    -0.014 C 
BRANCH  11  12
ATOM     12  C   UNL     1     144.240 -12.564  20.788  0.00  0.00    +0.186 C 
ATOM     13  O   UNL     1     144.176 -12.016  21.885  0.00  0.00    -0.287 OA
BRANCH  12  14
ATOM     14  C   UNL     1     144.460 -11.779  19.547  0.00  0.00    +0.022 A 
ATOM     15  C   UNL     1     144.871 -10.445  19.653  0.00  0.00    -0.051 A 
ATOM     16  C   UNL     1     145.041  -9.673  18.501  0.00  0.00    -0.061 A 
ATOM     17  C   UNL     1     144.818 -10.236  17.242  0.00  0.00    -0.062 A 
ATOM     18  C   UNL     1     144.445 -11.570  17.132  0.00  0.00    -0.061 A 
ATOM     19  C   UNL     1     144.275 -12.348  18.277  0.00  0.00    -0.051 A 
ENDBRANCH  12  14
ENDBRANCH  11  12
ENDBRANCH   9  10
BRANCH   7  20
ATOM     20  C   UNL     1     142.959 -19.405  19.812  0.00  0.00    +0.048 C 
BRANCH  20  21
ATOM     21  C   UNL     1     144.343 -19.874  19.440  0.00  0.00    -0.028 A 
ATOM     22  C   UNL     1     145.450 -19.523  20.227  0.00  0.00    -0.056 A 
ATOM     23  C   UNL     1     146.745 -19.851  19.821  0.00  0.00    -0.047 A 
ATOM     24  C   UNL     1     146.940 -20.548  18.632  0.00  0.00    +0.018 A 
ATOM     25  C   UNL     1     145.850 -20.961  17.869  0.00  0.00    -0.047 A 
ATOM     26  C   UNL     1     144.555 -20.627  18.273  0.00  0.00    -0.056 A 
ATOM     27 BR   UNL     1     148.696 -20.903  18.031  0.00  0.00    -0.050 Br
ENDBRANCH  20  21
ENDBRANCH   7  20
TORSDOF 5
ENDMDL
