MODEL 1
REMARK VINA RESULT:    -7.155      0.000      0.000
REMARK INTER + INTRA:          -8.420
REMARK INTER:                  -7.992
REMARK INTRA:                  -0.429
REMARK UNBOUND:                -0.429
REMARK  Name = 0b.sdf
REMARK  2 active torsions:
REMARK  status: ('A' for Active; 'I' for Inactive)
REMARK    1  A    between atoms: N_7  and  C_10
REMARK    2  A    between atoms: C_10  and  C_11
REMARK                            x       y       z     vdW  Elec       q    Type
REMARK                         _______ _______ _______ _____ _____    ______ ____
ROOT
ATOM      1  C   UNL     1      38.048  -8.200  19.727  0.00  0.00    -0.061 A 
ATOM      2  C   UNL     1      38.902  -8.405  18.649  0.00  0.00    -0.060 A 
ATOM      3  C   UNL     1      40.174  -7.824  18.614  0.00  0.00    -0.038 A 
ATOM      4  C   UNL     1      40.573  -7.032  19.704  0.00  0.00    +0.049 A 
ATOM      5  C   UNL     1      39.738  -6.837  20.811  0.00  0.00    -0.000 A 
ATOM      6  C   UNL     1      38.455  -7.422  20.815  0.00  0.00    -0.053 A 
ATOM      7  N   UNL     1      41.729  -6.312  19.945  0.00  0.00    -0.342 N 
ATOM      8  C   UNL     1      41.662  -5.718  21.184  0.00  0.00    +0.006 A 
ATOM      9  C   UNL     1      40.442  -6.025  21.737  0.00  0.00    -0.036 A 
ENDROOT
BRANCH   7  10
ATOM     10  C   UNL     1      42.809  -6.078  18.992  0.00  0.00    +0.048 C 
BRANCH  10  11
ATOM     11  C   UNL     1      42.819  -4.666  18.468  0.00  0.00    -0.025 A 
ATOM     12  C   UNL     1      44.017  -3.959  18.332  0.00  0.00    -0.039 A 
ATOM     13  C   UNL     1      43.975  -2.660  17.852  0.00  0.00    +0.028 A 
ATOM     14  N   UNL     1      42.839  -2.029  17.493  0.00  0.00    -0.263 NA
ATOM     15  C   UNL     1      41.690  -2.724  17.633  0.00  0.00    +0.028 A 
ATOM     16  C   UNL     1      41.628  -4.025  18.106  0.00  0.00    -0.039 A 
ENDBRANCH  10  11
ENDBRANCH   7  10
TORSDOF 2
ENDMDL
MODEL 2
REMARK VINA RESULT:    -7.034      2.869      5.402
REMARK INTER + INTRA:          -8.285
REMARK INTER:                  -7.761
REMARK INTRA:                  -0.524
REMARK UNBOUND:                -0.429
REMARK  Name = 0b.sdf
REMARK  2 active torsions:
REMARK  status: ('A' for Active; 'I' for Inactive)
REMARK    1  A    between atoms: N_7  and  C_10
REMARK    2  A    between atoms: C_10  and  C_11
REMARK                            x       y       z     vdW  Elec       q    Type
REMARK                         _______ _______ _______ _____ _____    ______ ____
ROOT
ATOM      1  C   UNL     1      37.936  -8.381  20.035  0.00  0.00    -0.061 A 
ATOM      2  C   UNL     1      37.207  -7.374  20.657  0.00  0.00    -0.060 A 
ATOM      3  C   UNL     1      37.827  -6.200  21.100  0.00  0.00    -0.038 A 
ATOM      4  C   UNL     1      39.210  -6.061  20.892  0.00  0.00    +0.049 A 
ATOM      5  C   UNL     1      39.956  -7.052  20.243  0.00  0.00    -0.000 A 
ATOM      6  C   UNL     1      39.309  -8.231  19.819  0.00  0.00    -0.053 A 
ATOM      7  N   UNL     1      40.096  -5.057  21.238  0.00  0.00    -0.342 N 
ATOM      8  C   UNL     1      41.356  -5.366  20.781  0.00  0.00    +0.006 A 
ATOM      9  C   UNL     1      41.297  -6.594  20.167  0.00  0.00    -0.036 A 
ENDROOT
BRANCH   7  10
ATOM     10  C   UNL     1      39.801  -3.905  22.083  0.00  0.00    +0.048 C 
BRANCH  10  11
ATOM     11  C   UNL     1      39.622  -4.282  23.529  0.00  0.00    -0.025 A 
ATOM     12  C   UNL     1      38.369  -4.200  24.144  0.00  0.00    -0.039 A 
ATOM     13  C   UNL     1      38.255  -4.553  25.478  0.00  0.00    +0.028 A 
ATOM     14  N   UNL     1      39.287  -4.986  26.231  0.00  0.00    -0.263 NA
ATOM     15  C   UNL     1      40.491  -5.057  25.624  0.00  0.00    +0.028 A 
ATOM     16  C   UNL     1      40.706  -4.724  24.297  0.00  0.00    -0.039 A 
ENDBRANCH  10  11
ENDBRANCH   7  10
TORSDOF 2
ENDMDL
MODEL 3
REMARK VINA RESULT:    -6.871      2.189      3.730
REMARK INTER + INTRA:          -8.103
REMARK INTER:                  -7.654
REMARK INTRA:                  -0.449
REMARK UNBOUND:                -0.429
REMARK  Name = 0b.sdf
REMARK  2 active torsions:
REMARK  status: ('A' for Active; 'I' for Inactive)
REMARK    1  A    between atoms: N_7  and  C_10
REMARK    2  A    between atoms: C_10  and  C_11
REMARK                            x       y       z     vdW  Elec       q    Type
REMARK                         _______ _______ _______ _____ _____    ______ ____
ROOT
ATOM      1  C   UNL     1      38.682  -8.379  19.250  0.00  0.00    -0.061 A 
ATOM      2  C   UNL     1      38.871  -7.930  20.552  0.00  0.00    -0.060 A 
ATOM      3  C   UNL     1      39.890  -7.023  20.863  0.00  0.00    -0.038 A 
ATOM      4  C   UNL     1      40.716  -6.569  19.820  0.00  0.00    +0.049 A 
ATOM      5  C   UNL     1      40.523  -6.989  18.499  0.00  0.00    -0.000 A 
ATOM      6  C   UNL     1      39.498  -7.914  18.214  0.00  0.00    -0.053 A 
ATOM      7  N   UNL     1      41.805  -5.717  19.814  0.00  0.00    -0.342 N 
ATOM      8  C   UNL     1      42.264  -5.553  18.528  0.00  0.00    +0.006 A 
ATOM      9  C   UNL     1      41.492  -6.330  17.697  0.00  0.00    -0.036 A 
ENDROOT
BRANCH   7  10
ATOM     10  C   UNL     1      42.479  -5.176  20.989  0.00  0.00    +0.048 C 
BRANCH  10  11
ATOM     11  C   UNL     1      41.606  -4.230  21.769  0.00  0.00    -0.025 A 
ATOM     12  C   UNL     1      41.016  -3.122  21.153  0.00  0.00    -0.039 A 
ATOM     13  C   UNL     1      40.224  -2.277  21.913  0.00  0.00    +0.028 A 
ATOM     14  N   UNL     1      39.975  -2.461  23.226  0.00  0.00    -0.263 NA
ATOM     15  C   UNL     1      40.554  -3.533  23.807  0.00  0.00    +0.028 A 
ATOM     16  C   UNL     1      41.362  -4.434  23.133  0.00  0.00    -0.039 A 
ENDBRANCH  10  11
ENDBRANCH   7  10
TORSDOF 2
ENDMDL
