MODEL 1
REMARK VINA RESULT:    -8.108      0.000      0.000
REMARK INTER + INTRA:          -9.019
REMARK INTER:                  -9.056
REMARK INTRA:                   0.037
REMARK UNBOUND:                 0.037
REMARK  Name = 0c.sdf
REMARK  2 active torsions:
REMARK  status: ('A' for Active; 'I' for Inactive)
REMARK    1  A    between atoms: N_7  and  C_10
REMARK    2  A    between atoms: C_10  and  C_11
REMARK                            x       y       z     vdW  Elec       q    Type
REMARK                         _______ _______ _______ _____ _____    ______ ____
ROOT
ATOM      1  C   UNL     1      45.373  -2.797  17.849  0.00  0.00    -0.061 A 
ATOM      2  C   UNL     1      45.126  -2.546  19.194  0.00  0.00    -0.060 A 
ATOM      3  C   UNL     1      44.241  -3.344  19.926  0.00  0.00    -0.038 A 
ATOM      4  C   UNL     1      43.611  -4.415  19.271  0.00  0.00    +0.049 A 
ATOM      5  C   UNL     1      43.869  -4.698  17.925  0.00  0.00    -0.000 A 
ATOM      6  C   UNL     1      44.756  -3.877  17.206  0.00  0.00    -0.053 A 
ATOM      7  N   UNL     1      42.686  -5.348  19.706  0.00  0.00    -0.342 N 
ATOM      8  C   UNL     1      42.398  -6.231  18.694  0.00  0.00    +0.006 A 
ATOM      9  C   UNL     1      43.112  -5.850  17.582  0.00  0.00    -0.036 A 
ENDROOT
BRANCH   7  10
ATOM     10  C   UNL     1      42.035  -5.371  21.013  0.00  0.00    +0.048 C 
BRANCH  10  11
ATOM     11  C   UNL     1      40.766  -6.187  20.985  0.00  0.00    -0.028 A 
ATOM     12  C   UNL     1      40.820  -7.588  20.956  0.00  0.00    -0.055 A 
ATOM     13  C   UNL     1      39.654  -8.340  20.809  0.00  0.00    -0.043 A 
ATOM     14  C   UNL     1      38.424  -7.696  20.705  0.00  0.00    +0.041 A 
ATOM     15  C   UNL     1      38.346  -6.309  20.782  0.00  0.00    -0.043 A 
ATOM     16  C   UNL     1      39.513  -5.555  20.926  0.00  0.00    -0.055 A 
ATOM     17 CL   UNL     1      36.995  -8.621  20.453  0.00  0.00    -0.084 Cl
ENDBRANCH  10  11
ENDBRANCH   7  10
TORSDOF 2
ENDMDL
MODEL 2
REMARK VINA RESULT:    -8.038      3.678      5.939
REMARK INTER + INTRA:          -8.941
REMARK INTER:                  -8.374
REMARK INTRA:                  -0.567
REMARK UNBOUND:                 0.037
REMARK  Name = 0c.sdf
REMARK  2 active torsions:
REMARK  status: ('A' for Active; 'I' for Inactive)
REMARK    1  A    between atoms: N_7  and  C_10
REMARK    2  A    between atoms: C_10  and  C_11
REMARK                            x       y       z     vdW  Elec       q    Type
REMARK                         _______ _______ _______ _____ _____    ______ ____
ROOT
ATOM      1  C   UNL     1      37.908  -8.361  20.072  0.00  0.00    -0.061 A 
ATOM      2  C   UNL     1      37.160  -7.354  20.672  0.00  0.00    -0.060 A 
ATOM      3  C   UNL     1      37.772  -6.199  21.170  0.00  0.00    -0.038 A 
ATOM      4  C   UNL     1      39.166  -6.075  21.039  0.00  0.00    +0.049 A 
ATOM      5  C   UNL     1      39.930  -7.065  20.412  0.00  0.00    -0.000 A 
ATOM      6  C   UNL     1      39.293  -8.223  19.928  0.00  0.00    -0.053 A 
ATOM      7  N   UNL     1      40.046  -5.086  21.443  0.00  0.00    -0.342 N 
ATOM      8  C   UNL     1      41.323  -5.404  21.047  0.00  0.00    +0.006 A 
ATOM      9  C   UNL     1      41.280  -6.623  20.411  0.00  0.00    -0.036 A 
ENDROOT
BRANCH   7  10
ATOM     10  C   UNL     1      39.713  -3.910  22.242  0.00  0.00    +0.048 C 
BRANCH  10  11
ATOM     11  C   UNL     1      39.592  -4.253  23.707  0.00  0.00    -0.028 A 
ATOM     12  C   UNL     1      40.724  -4.618  24.450  0.00  0.00    -0.055 A 
ATOM     13  C   UNL     1      40.597  -5.051  25.770  0.00  0.00    -0.043 A 
ATOM     14  C   UNL     1      39.337  -5.106  26.362  0.00  0.00    +0.041 A 
ATOM     15  C   UNL     1      38.208  -4.699  25.656  0.00  0.00    -0.043 A 
ATOM     16  C   UNL     1      38.335  -4.270  24.333  0.00  0.00    -0.055 A 
ATOM     17 CL   UNL     1      39.173  -5.705  27.967  0.00  0.00    -0.084 Cl
ENDBRANCH  10  11
ENDBRANCH   7  10
TORSDOF 2
ENDMDL
MODEL 3
REMARK VINA RESULT:    -7.857      2.975      6.374
REMARK INTER + INTRA:          -8.739
REMARK INTER:                  -8.248
REMARK INTRA:                  -0.492
REMARK UNBOUND:                 0.037
REMARK  Name = 0c.sdf
REMARK  2 active torsions:
REMARK  status: ('A' for Active; 'I' for Inactive)
REMARK    1  A    between atoms: N_7  and  C_10
REMARK    2  A    between atoms: C_10  and  C_11
REMARK                            x       y       z     vdW  Elec       q    Type
REMARK                         _______ _______ _______ _____ _____    ______ ____
ROOT
ATOM      1  C   UNL     1      37.767  -8.044  20.078  0.00  0.00    -0.061 A 
ATOM      2  C   UNL     1      38.677  -8.402  19.090  0.00  0.00    -0.060 A 
ATOM      3  C   UNL     1      39.962  -7.850  19.058  0.00  0.00    -0.038 A 
ATOM      4  C   UNL     1      40.317  -6.929  20.057  0.00  0.00    +0.049 A 
ATOM      5  C   UNL     1      39.423  -6.578  21.075  0.00  0.00    -0.000 A 
ATOM      6  C   UNL     1      38.132  -7.139  21.081  0.00  0.00    -0.053 A 
ATOM      7  N   UNL     1      41.477  -6.207  20.278  0.00  0.00    -0.342 N 
ATOM      8  C   UNL     1      41.354  -5.458  21.423  0.00  0.00    +0.006 A 
ATOM      9  C   UNL     1      40.094  -5.666  21.933  0.00  0.00    -0.036 A 
ENDROOT
BRANCH   7  10
ATOM     10  C   UNL     1      42.644  -6.163  19.401  0.00  0.00    +0.048 C 
BRANCH  10  11
ATOM     11  C   UNL     1      42.874  -4.776  18.855  0.00  0.00    -0.028 A 
ATOM     12  C   UNL     1      44.091  -4.115  19.077  0.00  0.00    -0.055 A 
ATOM     13  C   UNL     1      44.261  -2.789  18.678  0.00  0.00    -0.043 A 
ATOM     14  C   UNL     1      43.221  -2.120  18.038  0.00  0.00    +0.041 A 
ATOM     15  C   UNL     1      42.024  -2.776  17.764  0.00  0.00    -0.043 A 
ATOM     16  C   UNL     1      41.852  -4.102  18.167  0.00  0.00    -0.055 A 
ATOM     17 CL   UNL     1      43.407  -0.464  17.608  0.00  0.00    -0.084 Cl
ENDBRANCH  10  11
ENDBRANCH   7  10
TORSDOF 2
ENDMDL
