MODEL 1
REMARK VINA RESULT:    -7.377      0.000      0.000
REMARK INTER + INTRA:          -8.923
REMARK INTER:                  -8.671
REMARK INTRA:                  -0.252
REMARK UNBOUND:                -0.252
REMARK  Name = 14e.sdf
REMARK  5 active torsions:
REMARK  status: ('A' for Active; 'I' for Inactive)
REMARK    1  A    between atoms: C_9  and  C_10
REMARK    2  A    between atoms: C_10  and  O_11
REMARK    3  A    between atoms: O_11  and  C_12
REMARK    4  A    between atoms: C_12  and  C_13
REMARK    5  A    between atoms: C_15  and  C_16
REMARK                            x       y       z     vdW  Elec       q    Type
REMARK                         _______ _______ _______ _____ _____    ______ ____
ROOT
ATOM      1  C   UNL     1      38.044  -7.911  20.158  0.00  0.00    -0.061 A 
ATOM      2  C   UNL     1      38.706  -8.368  19.027  0.00  0.00    -0.060 A 
ATOM      3  C   UNL     1      39.857  -7.726  18.563  0.00  0.00    -0.037 A 
ATOM      4  C   UNL     1      40.339  -6.595  19.256  0.00  0.00    +0.057 A 
ATOM      5  C   UNL     1      39.676  -6.122  20.393  0.00  0.00    +0.007 A 
ATOM      6  C   UNL     1      38.522  -6.798  20.849  0.00  0.00    -0.052 A 
ATOM      7  N   UNL     1      41.453  -5.775  19.022  0.00  0.00    -0.287 N 
ATOM      8  C   UNL     1      41.453  -4.801  20.012  0.00  0.00    +0.020 A 
ATOM      9  C   UNL     1      40.381  -4.978  20.863  0.00  0.00    +0.015 A 
ATOM     10  C   UNL     1      42.390  -5.938  17.970  0.00  0.00    +0.229 C 
ATOM     11  C   UNL     1      43.532  -4.967  17.878  0.00  0.00    +0.015 C 
ATOM     12  O   UNL     1      42.260  -6.852  17.162  0.00  0.00    -0.273 OA
ENDROOT
BRANCH   9  13
ATOM     13  C   UNL     1      40.036  -4.148  22.061  0.00  0.00    +0.119 C 
BRANCH  13  14
ATOM     14  O   UNL     1      40.157  -4.909  23.273  0.00  0.00    -0.460 OA
BRANCH  14  15
ATOM     15  C   UNL     1      39.336  -4.549  24.289  0.00  0.00    +0.304 C 
ATOM     16  C   UNL     1      40.033  -3.624  25.241  0.00  0.00    +0.033 C 
ATOM     17  O   UNL     1      38.173  -4.905  24.433  0.00  0.00    -0.251 OA
ENDBRANCH  14  15
ENDBRANCH  13  14
ENDBRANCH   9  13
TORSDOF 3
ENDMDL
MODEL 2
REMARK VINA RESULT:    -7.180      1.688      5.173
REMARK INTER + INTRA:          -8.691
REMARK INTER:                  -8.301
REMARK INTRA:                  -0.390
REMARK UNBOUND:                -0.252
REMARK  Name = 14e.sdf
REMARK  5 active torsions:
REMARK  status: ('A' for Active; 'I' for Inactive)
REMARK    1  A    between atoms: C_9  and  C_10
REMARK    2  A    between atoms: C_10  and  O_11
REMARK    3  A    between atoms: O_11  and  C_12
REMARK    4  A    between atoms: C_12  and  C_13
REMARK    5  A    between atoms: C_15  and  C_16
REMARK                            x       y       z     vdW  Elec       q    Type
REMARK                         _______ _______ _______ _____ _____    ______ ____
ROOT
ATOM      1  C   UNL     1      39.079  -8.376  19.012  0.00  0.00    -0.061 A 
ATOM      2  C   UNL     1      37.983  -8.133  19.827  0.00  0.00    -0.060 A 
ATOM      3  C   UNL     1      38.045  -7.174  20.842  0.00  0.00    -0.037 A 
ATOM      4  C   UNL     1      39.243  -6.456  21.036  0.00  0.00    +0.057 A 
ATOM      5  C   UNL     1      40.356  -6.696  20.224  0.00  0.00    +0.007 A 
ATOM      6  C   UNL     1      40.263  -7.662  19.197  0.00  0.00    -0.052 A 
ATOM      7  N   UNL     1      39.579  -5.450  21.956  0.00  0.00    -0.287 N 
ATOM      8  C   UNL     1      40.898  -5.096  21.705  0.00  0.00    +0.020 A 
ATOM      9  C   UNL     1      41.407  -5.839  20.658  0.00  0.00    +0.015 A 
ATOM     10  C   UNL     1      38.712  -4.912  22.940  0.00  0.00    +0.229 C 
ATOM     11  C   UNL     1      39.239  -3.830  23.837  0.00  0.00    +0.015 C 
ATOM     12  O   UNL     1      37.562  -5.329  23.047  0.00  0.00    -0.273 OA
ENDROOT
BRANCH   9  13
ATOM     13  C   UNL     1      42.783  -5.748  20.075  0.00  0.00    +0.119 C 
BRANCH  13  14
ATOM     14  O   UNL     1      42.898  -4.622  19.190  0.00  0.00    -0.460 OA
BRANCH  14  15
ATOM     15  C   UNL     1      43.563  -4.842  18.029  0.00  0.00    +0.304 C 
ATOM     16  C   UNL     1      43.182  -6.164  17.433  0.00  0.00    +0.033 C 
ATOM     17  O   UNL     1      44.364  -4.077  17.505  0.00  0.00    -0.251 OA
ENDBRANCH  14  15
ENDBRANCH  13  14
ENDBRANCH   9  13
TORSDOF 3
ENDMDL
MODEL 3
REMARK VINA RESULT:    -6.885      1.621      2.201
REMARK INTER + INTRA:          -8.345
REMARK INTER:                  -7.928
REMARK INTRA:                  -0.417
REMARK UNBOUND:                -0.252
REMARK  Name = 14e.sdf
REMARK  5 active torsions:
REMARK  status: ('A' for Active; 'I' for Inactive)
REMARK    1  A    between atoms: C_9  and  C_10
REMARK    2  A    between atoms: C_10  and  O_11
REMARK    3  A    between atoms: O_11  and  C_12
REMARK    4  A    between atoms: C_12  and  C_13
REMARK    5  A    between atoms: C_15  and  C_16
REMARK                            x       y       z     vdW  Elec       q    Type
REMARK                         _______ _______ _______ _____ _____    ______ ____
ROOT
ATOM      1  C   UNL     1      40.067  -7.758  18.720  0.00  0.00    -0.061 A 
ATOM      2  C   UNL     1      40.909  -7.391  17.680  0.00  0.00    -0.060 A 
ATOM      3  C   UNL     1      41.904  -6.428  17.869  0.00  0.00    -0.037 A 
ATOM      4  C   UNL     1      42.041  -5.824  19.136  0.00  0.00    +0.057 A 
ATOM      5  C   UNL     1      41.194  -6.181  20.191  0.00  0.00    +0.007 A 
ATOM      6  C   UNL     1      40.205  -7.167  19.976  0.00  0.00    -0.052 A 
ATOM      7  N   UNL     1      42.939  -4.851  19.604  0.00  0.00    -0.287 N 
ATOM      8  C   UNL     1      42.624  -4.616  20.935  0.00  0.00    +0.020 A 
ATOM      9  C   UNL     1      41.561  -5.405  21.327  0.00  0.00    +0.015 A 
ATOM     10  C   UNL     1      43.968  -4.246  18.839  0.00  0.00    +0.229 C 
ATOM     11  C   UNL     1      44.845  -3.228  19.508  0.00  0.00    +0.015 C 
ATOM     12  O   UNL     1      44.128  -4.556  17.662  0.00  0.00    -0.273 OA
ENDROOT
BRANCH   9  13
ATOM     13  C   UNL     1      40.930  -5.458  22.684  0.00  0.00    +0.119 C 
BRANCH  13  14
ATOM     14  O   UNL     1      40.007  -4.372  22.870  0.00  0.00    -0.460 OA
BRANCH  14  15
ATOM     15  C   UNL     1      38.722  -4.719  23.126  0.00  0.00    +0.304 C 
ATOM     16  C   UNL     1      37.951  -4.901  21.853  0.00  0.00    +0.033 C 
ATOM     17  O   UNL     1      38.229  -4.881  24.235  0.00  0.00    -0.251 OA
ENDBRANCH  14  15
ENDBRANCH  13  14
ENDBRANCH   9  13
TORSDOF 3
ENDMDL
