MODEL 1
REMARK VINA RESULT:    -8.006      0.000      0.000
REMARK INTER + INTRA:         -10.481
REMARK INTER:                  -9.878
REMARK INTRA:                  -0.603
REMARK UNBOUND:                -0.603
REMARK  Name = 16.sdf
REMARK  4 active torsions:
REMARK  status: ('A' for Active; 'I' for Inactive)
REMARK    1  A    between atoms: C_9  and  C_10
REMARK    2  A    between atoms: C_10  and  O_11
REMARK    3  A    between atoms: O_11  and  C_12
REMARK    4  A    between atoms: C_12  and  C_13
REMARK                            x       y       z     vdW  Elec       q    Type
REMARK                         _______ _______ _______ _____ _____    ______ ____
ROOT
ATOM      1  C   UNL     1      39.056  -6.019  28.096  0.00  0.00    -0.061 A 
ATOM      2  C   UNL     1      37.813  -5.435  28.329  0.00  0.00    -0.060 A 
ATOM      3  C   UNL     1      37.274  -4.512  27.429  0.00  0.00    -0.038 A 
ATOM      4  C   UNL     1      38.025  -4.199  26.291  0.00  0.00    +0.047 A 
ATOM      5  C   UNL     1      39.271  -4.769  26.021  0.00  0.00    +0.005 A 
ATOM      6  C   UNL     1      39.793  -5.697  26.950  0.00  0.00    -0.052 A 
ATOM      7  N   UNL     1      37.743  -3.338  25.257  0.00  0.00    -0.360 N 
ATOM      8  C   UNL     1      38.765  -3.339  24.350  0.00  0.00    +0.008 A 
ATOM      9  C   UNL     1      39.736  -4.226  24.777  0.00  0.00    +0.003 A 
ATOM     10  H   UNL     1      36.923  -2.798  25.181  0.00  0.00    +0.000 HD
ENDROOT
BRANCH   9  11
ATOM     11  C   UNL     1      41.021  -4.540  24.079  0.00  0.00    +0.075 C 
BRANCH  11  12
ATOM     12  O   UNL     1      40.983  -4.119  22.713  0.00  0.00    -0.371 OA
BRANCH  12  13
ATOM     13  C   UNL     1      41.429  -5.139  21.824  0.00  0.00    +0.073 C 
BRANCH  13  14
ATOM     14  C   UNL     1      40.267  -6.014  21.411  0.00  0.00    -0.022 A 
ATOM     15  C   UNL     1      40.475  -7.373  21.132  0.00  0.00    -0.055 A 
ATOM     16  C   UNL     1      39.404  -8.198  20.773  0.00  0.00    -0.043 A 
ATOM     17  C   UNL     1      38.117  -7.671  20.701  0.00  0.00    +0.041 A 
ATOM     18  C   UNL     1      37.889  -6.330  20.993  0.00  0.00    -0.043 A 
ATOM     19  C   UNL     1      38.959  -5.507  21.352  0.00  0.00    -0.055 A 
ATOM     20 CL   UNL     1      36.801  -8.686  20.253  0.00  0.00    -0.084 Cl
ENDBRANCH  13  14
ENDBRANCH  12  13
ENDBRANCH  11  12
ENDBRANCH   9  11
TORSDOF 4
ENDMDL
MODEL 2
REMARK VINA RESULT:    -7.708      2.765      6.053
REMARK INTER + INTRA:         -10.114
REMARK INTER:                  -9.461
REMARK INTRA:                  -0.653
REMARK UNBOUND:                -0.603
REMARK  Name = 16.sdf
REMARK  4 active torsions:
REMARK  status: ('A' for Active; 'I' for Inactive)
REMARK    1  A    between atoms: C_9  and  C_10
REMARK    2  A    between atoms: C_10  and  O_11
REMARK    3  A    between atoms: O_11  and  C_12
REMARK    4  A    between atoms: C_12  and  C_13
REMARK                            x       y       z     vdW  Elec       q    Type
REMARK                         _______ _______ _______ _____ _____    ______ ____
ROOT
ATOM      1  C   UNL     1      37.194  -7.156  20.812  0.00  0.00    -0.061 A 
ATOM      2  C   UNL     1      37.808  -8.248  20.206  0.00  0.00    -0.060 A 
ATOM      3  C   UNL     1      39.179  -8.244  19.938  0.00  0.00    -0.038 A 
ATOM      4  C   UNL     1      39.908  -7.105  20.301  0.00  0.00    +0.047 A 
ATOM      5  C   UNL     1      39.327  -5.994  20.915  0.00  0.00    +0.005 A 
ATOM      6  C   UNL     1      37.939  -6.026  21.171  0.00  0.00    -0.052 A 
ATOM      7  N   UNL     1      41.247  -6.833  20.156  0.00  0.00    -0.360 N 
ATOM      8  C   UNL     1      41.532  -5.591  20.650  0.00  0.00    +0.008 A 
ATOM      9  C   UNL     1      40.368  -5.034  21.146  0.00  0.00    +0.003 A 
ATOM     10  H   UNL     1      41.907  -7.444  19.755  0.00  0.00    +0.000 HD
ENDROOT
BRANCH   9  11
ATOM     11  C   UNL     1      40.228  -3.687  21.783  0.00  0.00    +0.075 C 
BRANCH  11  12
ATOM     12  O   UNL     1      40.294  -3.783  23.209  0.00  0.00    -0.371 OA
BRANCH  12  13
ATOM     13  C   UNL     1      39.047  -3.475  23.826  0.00  0.00    +0.073 C 
BRANCH  13  14
ATOM     14  C   UNL     1      38.838  -4.353  25.040  0.00  0.00    -0.022 A 
ATOM     15  C   UNL     1      39.943  -4.845  25.751  0.00  0.00    -0.055 A 
ATOM     16  C   UNL     1      39.763  -5.638  26.888  0.00  0.00    -0.043 A 
ATOM     17  C   UNL     1      38.475  -5.934  27.330  0.00  0.00    +0.041 A 
ATOM     18  C   UNL     1      37.367  -5.438  26.649  0.00  0.00    -0.043 A 
ATOM     19  C   UNL     1      37.549  -4.646  25.513  0.00  0.00    -0.055 A 
ATOM     20 CL   UNL     1      38.254  -6.914  28.727  0.00  0.00    -0.084 Cl
ENDBRANCH  13  14
ENDBRANCH  12  13
ENDBRANCH  11  12
ENDBRANCH   9  11
TORSDOF 4
ENDMDL
MODEL 3
REMARK VINA RESULT:    -7.691      3.558      6.300
REMARK INTER + INTRA:         -10.092
REMARK INTER:                  -8.858
REMARK INTRA:                  -1.234
REMARK UNBOUND:                -0.603
REMARK  Name = 16.sdf
REMARK  4 active torsions:
REMARK  status: ('A' for Active; 'I' for Inactive)
REMARK    1  A    between atoms: C_9  and  C_10
REMARK    2  A    between atoms: C_10  and  O_11
REMARK    3  A    between atoms: O_11  and  C_12
REMARK    4  A    between atoms: C_12  and  C_13
REMARK                            x       y       z     vdW  Elec       q    Type
REMARK                         _______ _______ _______ _____ _____    ______ ____
ROOT
ATOM      1  C   UNL     1      38.866  -7.619  20.867  0.00  0.00    -0.061 A 
ATOM      2  C   UNL     1      38.342  -8.278  19.758  0.00  0.00    -0.060 A 
ATOM      3  C   UNL     1      39.004  -8.252  18.528  0.00  0.00    -0.038 A 
ATOM      4  C   UNL     1      40.208  -7.541  18.454  0.00  0.00    +0.047 A 
ATOM      5  C   UNL     1      40.765  -6.873  19.545  0.00  0.00    +0.005 A 
ATOM      6  C   UNL     1      40.073  -6.915  20.775  0.00  0.00    -0.052 A 
ATOM      7  N   UNL     1      41.054  -7.350  17.387  0.00  0.00    -0.360 N 
ATOM      8  C   UNL     1      42.120  -6.583  17.763  0.00  0.00    +0.008 A 
ATOM      9  C   UNL     1      41.991  -6.272  19.104  0.00  0.00    +0.003 A 
ATOM     10  H   UNL     1      40.912  -7.713  16.483  0.00  0.00    +0.000 HD
ENDROOT
BRANCH   9  11
ATOM     11  C   UNL     1      42.941  -5.455  19.922  0.00  0.00    +0.075 C 
BRANCH  11  12
ATOM     12  O   UNL     1      42.603  -4.067  19.872  0.00  0.00    -0.371 OA
BRANCH  12  13
ATOM     13  C   UNL     1      42.733  -3.435  21.142  0.00  0.00    +0.073 C 
BRANCH  13  14
ATOM     14  C   UNL     1      41.530  -3.746  22.004  0.00  0.00    -0.022 A 
ATOM     15  C   UNL     1      41.691  -4.445  23.210  0.00  0.00    -0.055 A 
ATOM     16  C   UNL     1      40.589  -4.719  24.026  0.00  0.00    -0.043 A 
ATOM     17  C   UNL     1      39.321  -4.284  23.648  0.00  0.00    +0.041 A 
ATOM     18  C   UNL     1      39.145  -3.572  22.465  0.00  0.00    -0.043 A 
ATOM     19  C   UNL     1      40.246  -3.300  21.650  0.00  0.00    -0.055 A 
ATOM     20 CL   UNL     1      37.965  -4.625  24.652  0.00  0.00    -0.084 Cl
ENDBRANCH  13  14
ENDBRANCH  12  13
ENDBRANCH  11  12
ENDBRANCH   9  11
TORSDOF 4
ENDMDL
