MODEL 1
REMARK VINA RESULT:    -8.689      0.000      0.000
REMARK INTER + INTRA:         -12.009
REMARK INTER:                 -11.229
REMARK INTRA:                  -0.780
REMARK UNBOUND:                -0.780
REMARK  Name = 17g.sdf
REMARK  6 active torsions:
REMARK  status: ('A' for Active; 'I' for Inactive)
REMARK    1  A    between atoms: N_7  and  C_16
REMARK    2  A    between atoms: C_9  and  C_10
REMARK    3  A    between atoms: N_11  and  N_12
REMARK    4  A    between atoms: C_16  and  C_17
REMARK    5  A    between atoms: C_20  and  O_23
REMARK    6  A    between atoms: O_23  and  C_24
REMARK                            x       y       z     vdW  Elec       q    Type
REMARK                         _______ _______ _______ _____ _____    ______ ____
ROOT
ATOM      1  C   UNL     1      37.191  -7.730  20.418  0.00  0.00    -0.061 A 
ATOM      2  C   UNL     1      38.196  -8.346  19.681  0.00  0.00    -0.060 A 
ATOM      3  C   UNL     1      39.504  -7.853  19.695  0.00  0.00    -0.038 A 
ATOM      4  C   UNL     1      39.784  -6.719  20.478  0.00  0.00    +0.050 A 
ATOM      5  C   UNL     1      38.798  -6.112  21.265  0.00  0.00    +0.009 A 
ATOM      6  C   UNL     1      37.480  -6.622  21.219  0.00  0.00    -0.052 A 
ATOM      7  N   UNL     1      40.944  -5.988  20.650  0.00  0.00    -0.342 N 
ATOM      8  C   UNL     1      40.733  -4.996  21.574  0.00  0.00    +0.015 A 
ATOM      9  C   UNL     1      39.414  -5.041  21.983  0.00  0.00    +0.020 A 
ENDROOT
BRANCH   9  10
ATOM     10  C   UNL     1      38.800  -4.166  22.959  0.00  0.00    +0.055 C 
ATOM     11  N   UNL     1      38.466  -4.643  24.115  0.00  0.00    -0.186 NA
BRANCH  11  12
ATOM     12  N   UNL     1      37.874  -3.752  24.967  0.00  0.00    -0.191 N 
ATOM     13  C   UNL     1      36.726  -4.071  25.656  0.00  0.00    +0.317 C 
ATOM     14  O   UNL     1      36.192  -3.313  26.452  0.00  0.00    -0.251 OA
ATOM     15  N   UNL     1      36.235  -5.301  25.366  0.00  0.00    -0.312 N 
ATOM     16  H   UNL     1      38.278  -2.862  25.091  0.00  0.00    +0.000 HD
ATOM     17  H   UNL     1      36.701  -5.876  24.717  0.00  0.00    +0.000 HD
ATOM     18  H   UNL     1      35.413  -5.619  25.805  0.00  0.00    +0.000 HD
ENDBRANCH  11  12
ENDBRANCH   9  10
BRANCH   7  19
ATOM     19  C   UNL     1      42.187  -6.135  19.894  0.00  0.00    +0.048 C 
BRANCH  19  20
ATOM     20  C   UNL     1      42.543  -4.876  19.146  0.00  0.00    -0.028 A 
ATOM     21  C   UNL     1      43.814  -4.309  19.281  0.00  0.00    -0.053 A 
ATOM     22  C   UNL     1      44.102  -3.074  18.699  0.00  0.00    -0.020 A 
ATOM     23  C   UNL     1      43.140  -2.396  17.950  0.00  0.00    +0.120 A 
ATOM     24  C   UNL     1      41.892  -2.982  17.753  0.00  0.00    -0.020 A 
ATOM     25  C   UNL     1      41.594  -4.215  18.350  0.00  0.00    -0.053 A 
BRANCH  23  26
ATOM     26  O   UNL     1      43.525  -1.153  17.533  0.00  0.00    -0.495 OA
ATOM     27  C   UNL     1      44.002  -0.250  18.520  0.00  0.00    +0.079 C 
ENDBRANCH  23  26
ENDBRANCH  19  20
ENDBRANCH   7  19
TORSDOF 5
ENDMDL
MODEL 2
REMARK VINA RESULT:    -8.423      1.543      1.779
REMARK INTER + INTRA:         -11.665
REMARK INTER:                 -10.907
REMARK INTRA:                  -0.759
REMARK UNBOUND:                -0.780
REMARK  Name = 17g.sdf
REMARK  6 active torsions:
REMARK  status: ('A' for Active; 'I' for Inactive)
REMARK    1  A    between atoms: N_7  and  C_16
REMARK    2  A    between atoms: C_9  and  C_10
REMARK    3  A    between atoms: N_11  and  N_12
REMARK    4  A    between atoms: C_16  and  C_17
REMARK    5  A    between atoms: C_20  and  O_23
REMARK    6  A    between atoms: O_23  and  C_24
REMARK                            x       y       z     vdW  Elec       q    Type
REMARK                         _______ _______ _______ _____ _____    ______ ____
ROOT
ATOM      1  C   UNL     1      38.076  -8.152  19.844  0.00  0.00    -0.061 A 
ATOM      2  C   UNL     1      38.765  -8.435  18.670  0.00  0.00    -0.060 A 
ATOM      3  C   UNL     1      40.031  -7.892  18.430  0.00  0.00    -0.038 A 
ATOM      4  C   UNL     1      40.598  -7.056  19.409  0.00  0.00    +0.050 A 
ATOM      5  C   UNL     1      39.942  -6.797  20.618  0.00  0.00    +0.009 A 
ATOM      6  C   UNL     1      38.656  -7.346  20.827  0.00  0.00    -0.052 A 
ATOM      7  N   UNL     1      41.785  -6.349  19.434  0.00  0.00    -0.342 N 
ATOM      8  C   UNL     1      41.924  -5.722  20.647  0.00  0.00    +0.015 A 
ATOM      9  C   UNL     1      40.803  -5.979  21.413  0.00  0.00    +0.020 A 
ENDROOT
BRANCH   9  10
ATOM     10  C   UNL     1      40.572  -5.505  22.761  0.00  0.00    +0.055 C 
ATOM     11  N   UNL     1      39.520  -4.793  23.009  0.00  0.00    -0.186 NA
BRANCH  11  12
ATOM     12  N   UNL     1      39.391  -4.370  24.303  0.00  0.00    -0.191 N 
ATOM     13  C   UNL     1      39.073  -3.066  24.604  0.00  0.00    +0.317 C 
ATOM     14  O   UNL     1      38.913  -2.663  25.747  0.00  0.00    -0.251 OA
ATOM     15  N   UNL     1      38.958  -2.263  23.517  0.00  0.00    -0.312 N 
ATOM     16  H   UNL     1      39.529  -5.013  25.036  0.00  0.00    +0.000 HD
ATOM     17  H   UNL     1      39.097  -2.633  22.616  0.00  0.00    +0.000 HD
ATOM     18  H   UNL     1      38.738  -1.310  23.630  0.00  0.00    +0.000 HD
ENDBRANCH  11  12
ENDBRANCH   9  10
BRANCH   7  19
ATOM     19  C   UNL     1      42.715  -6.167  18.321  0.00  0.00    +0.048 C 
BRANCH  19  20
ATOM     20  C   UNL     1      42.885  -4.713  17.961  0.00  0.00    -0.028 A 
ATOM     21  C   UNL     1      44.163  -4.164  17.827  0.00  0.00    -0.053 A 
ATOM     22  C   UNL     1      44.325  -2.792  17.628  0.00  0.00    -0.020 A 
ATOM     23  C   UNL     1      43.217  -1.948  17.532  0.00  0.00    +0.120 A 
ATOM     24  C   UNL     1      41.938  -2.494  17.598  0.00  0.00    -0.020 A 
ATOM     25  C   UNL     1      41.773  -3.870  17.814  0.00  0.00    -0.053 A 
BRANCH  23  26
ATOM     26  O   UNL     1      43.527  -0.620  17.447  0.00  0.00    -0.495 OA
ATOM     27  C   UNL     1      44.863  -0.240  17.745  0.00  0.00    +0.079 C 
ENDBRANCH  23  26
ENDBRANCH  19  20
ENDBRANCH   7  19
TORSDOF 5
ENDMDL
MODEL 3
REMARK VINA RESULT:    -8.146      2.043      2.274
REMARK INTER + INTRA:         -11.308
REMARK INTER:                 -10.744
REMARK INTRA:                  -0.564
REMARK UNBOUND:                -0.780
REMARK  Name = 17g.sdf
REMARK  6 active torsions:
REMARK  status: ('A' for Active; 'I' for Inactive)
REMARK    1  A    between atoms: N_7  and  C_16
REMARK    2  A    between atoms: C_9  and  C_10
REMARK    3  A    between atoms: N_11  and  N_12
REMARK    4  A    between atoms: C_16  and  C_17
REMARK    5  A    between atoms: C_20  and  O_23
REMARK    6  A    between atoms: O_23  and  C_24
REMARK                            x       y       z     vdW  Elec       q    Type
REMARK                         _______ _______ _______ _____ _____    ______ ____
ROOT
ATOM      1  C   UNL     1      37.699  -8.161  19.952  0.00  0.00    -0.061 A 
ATOM      2  C   UNL     1      38.813  -8.402  19.157  0.00  0.00    -0.060 A 
ATOM      3  C   UNL     1      39.921  -7.550  19.193  0.00  0.00    -0.038 A 
ATOM      4  C   UNL     1      39.887  -6.443  20.060  0.00  0.00    +0.050 A 
ATOM      5  C   UNL     1      38.795  -6.209  20.904  0.00  0.00    +0.009 A 
ATOM      6  C   UNL     1      37.682  -7.077  20.835  0.00  0.00    -0.052 A 
ATOM      7  N   UNL     1      40.790  -5.419  20.275  0.00  0.00    -0.342 N 
ATOM      8  C   UNL     1      40.332  -4.601  21.277  0.00  0.00    +0.015 A 
ATOM      9  C   UNL     1      39.098  -5.060  21.698  0.00  0.00    +0.020 A 
ENDROOT
BRANCH   9  10
ATOM     10  C   UNL     1      38.291  -4.475  22.747  0.00  0.00    +0.055 C 
ATOM     11  N   UNL     1      38.367  -4.955  23.946  0.00  0.00    -0.186 NA
BRANCH  11  12
ATOM     12  N   UNL     1      37.556  -4.356  24.869  0.00  0.00    -0.191 N 
ATOM     13  C   UNL     1      37.893  -4.315  26.203  0.00  0.00    +0.317 C 
ATOM     14  O   UNL     1      37.210  -3.756  27.049  0.00  0.00    -0.251 OA
ATOM     15  N   UNL     1      39.050  -4.958  26.498  0.00  0.00    -0.312 N 
ATOM     16  H   UNL     1      36.711  -3.945  24.574  0.00  0.00    +0.000 HD
ATOM     17  H   UNL     1      39.566  -5.394  25.782  0.00  0.00    +0.000 HD
ATOM     18  H   UNL     1      39.374  -4.989  27.427  0.00  0.00    +0.000 HD
ENDBRANCH  11  12
ENDBRANCH   9  10
BRANCH   7  19
ATOM     19  C   UNL     1      41.995  -5.142  19.495  0.00  0.00    +0.048 C 
BRANCH  19  20
ATOM     20  C   UNL     1      42.887  -4.135  20.175  0.00  0.00    -0.028 A 
ATOM     21  C   UNL     1      43.675  -4.514  21.266  0.00  0.00    -0.053 A 
ATOM     22  C   UNL     1      44.396  -3.558  21.983  0.00  0.00    -0.020 A 
ATOM     23  C   UNL     1      44.368  -2.214  21.609  0.00  0.00    +0.120 A 
ATOM     24  C   UNL     1      43.639  -1.835  20.485  0.00  0.00    -0.020 A 
ATOM     25  C   UNL     1      42.901  -2.791  19.773  0.00  0.00    -0.053 A 
BRANCH  23  26
ATOM     26  O   UNL     1      45.032  -1.379  22.463  0.00  0.00    -0.495 OA
ATOM     27  C   UNL     1      44.594  -1.341  23.813  0.00  0.00    +0.079 C 
ENDBRANCH  23  26
ENDBRANCH  19  20
ENDBRANCH   7  19
TORSDOF 5
ENDMDL
