MODEL 1
REMARK VINA RESULT:    -6.573      0.000      0.000
REMARK INTER + INTRA:          -8.510
REMARK INTER:                  -8.110
REMARK INTRA:                  -0.399
REMARK UNBOUND:                -0.399
REMARK  Name = 19.sdf
REMARK  5 active torsions:
REMARK  status: ('A' for Active; 'I' for Inactive)
REMARK    1  A    between atoms: C_9  and  C_10
REMARK    2  A    between atoms: C_10  and  C_11
REMARK    3  A    between atoms: C_11  and  O_13
REMARK    4  A    between atoms: O_13  and  C_14
REMARK    5  A    between atoms: C_14  and  C_15
REMARK                            x       y       z     vdW  Elec       q    Type
REMARK                         _______ _______ _______ _____ _____    ______ ____
ROOT
ATOM      1  C   UNL     1      38.119  -8.351  19.685  0.00  0.00    -0.061 A 
ATOM      2  C   UNL     1      37.216  -7.600  20.431  0.00  0.00    -0.060 A 
ATOM      3  C   UNL     1      37.616  -6.427  21.077  0.00  0.00    -0.038 A 
ATOM      4  C   UNL     1      38.950  -6.034  20.932  0.00  0.00    +0.047 A 
ATOM      5  C   UNL     1      39.880  -6.751  20.177  0.00  0.00    +0.003 A 
ATOM      6  C   UNL     1      39.450  -7.940  19.548  0.00  0.00    -0.052 A 
ATOM      7  N   UNL     1      39.608  -4.943  21.450  0.00  0.00    -0.360 N 
ATOM      8  C   UNL     1      40.908  -4.925  21.019  0.00  0.00    +0.006 A 
ATOM      9  C   UNL     1      41.122  -6.036  20.223  0.00  0.00    -0.012 A 
ATOM     10  H   UNL     1      39.202  -4.270  22.043  0.00  0.00    +0.000 HD
ENDROOT
BRANCH   9  11
ATOM     11  C   UNL     1      42.393  -6.382  19.511  0.00  0.00    +0.072 C 
BRANCH  11  12
ATOM     12  C   UNL     1      42.402  -6.017  18.039  0.00  0.00    +0.312 C 
ATOM     13  O   UNL     1      42.295  -6.785  17.093  0.00  0.00    -0.250 OA
BRANCH  12  14
ATOM     14  O   UNL     1      42.607  -4.666  17.922  0.00  0.00    -0.465 OA
BRANCH  14  15
ATOM     15  C   UNL     1      43.829  -4.157  18.478  0.00  0.00    +0.090 C 
ATOM     16  C   UNL     1      44.803  -3.751  17.391  0.00  0.00    -0.031 C 
ENDBRANCH  14  15
ENDBRANCH  12  14
ENDBRANCH  11  12
ENDBRANCH   9  11
TORSDOF 4
ENDMDL
MODEL 2
REMARK VINA RESULT:    -6.286      2.236      3.228
REMARK INTER + INTRA:          -8.155
REMARK INTER:                  -7.612
REMARK INTRA:                  -0.543
REMARK UNBOUND:                -0.399
REMARK  Name = 19.sdf
REMARK  5 active torsions:
REMARK  status: ('A' for Active; 'I' for Inactive)
REMARK    1  A    between atoms: C_9  and  C_10
REMARK    2  A    between atoms: C_10  and  C_11
REMARK    3  A    between atoms: C_11  and  O_13
REMARK    4  A    between atoms: O_13  and  C_14
REMARK    5  A    between atoms: C_14  and  C_15
REMARK                            x       y       z     vdW  Elec       q    Type
REMARK                         _______ _______ _______ _____ _____    ______ ____
ROOT
ATOM      1  C   UNL     1      39.232  -7.844  20.773  0.00  0.00    -0.061 A 
ATOM      2  C   UNL     1      38.712  -8.343  19.583  0.00  0.00    -0.060 A 
ATOM      3  C   UNL     1      39.350  -8.106  18.362  0.00  0.00    -0.038 A 
ATOM      4  C   UNL     1      40.535  -7.363  18.388  0.00  0.00    +0.047 A 
ATOM      5  C   UNL     1      41.096  -6.862  19.563  0.00  0.00    +0.003 A 
ATOM      6  C   UNL     1      40.421  -7.105  20.779  0.00  0.00    -0.052 A 
ATOM      7  N   UNL     1      41.358  -6.983  17.354  0.00  0.00    -0.360 N 
ATOM      8  C   UNL     1      42.437  -6.293  17.838  0.00  0.00    +0.006 A 
ATOM      9  C   UNL     1      42.315  -6.193  19.212  0.00  0.00    -0.012 A 
ATOM     10  H   UNL     1      41.195  -7.180  16.404  0.00  0.00    +0.000 HD
ENDROOT
BRANCH   9  11
ATOM     11  C   UNL     1      43.298  -5.554  20.144  0.00  0.00    +0.072 C 
BRANCH  11  12
ATOM     12  C   UNL     1      43.690  -4.139  19.763  0.00  0.00    +0.312 C 
ATOM     13  O   UNL     1      44.818  -3.731  19.527  0.00  0.00    -0.250 OA
BRANCH  12  14
ATOM     14  O   UNL     1      42.567  -3.353  19.776  0.00  0.00    -0.465 OA
BRANCH  14  15
ATOM     15  C   UNL     1      42.005  -3.066  21.066  0.00  0.00    +0.090 C 
ATOM     16  C   UNL     1      40.493  -3.157  21.041  0.00  0.00    -0.031 C 
ENDBRANCH  14  15
ENDBRANCH  12  14
ENDBRANCH  11  12
ENDBRANCH   9  11
TORSDOF 4
ENDMDL
MODEL 3
REMARK VINA RESULT:    -6.286      2.214      2.832
REMARK INTER + INTRA:          -8.155
REMARK INTER:                  -7.759
REMARK INTRA:                  -0.396
REMARK UNBOUND:                -0.399
REMARK  Name = 19.sdf
REMARK  5 active torsions:
REMARK  status: ('A' for Active; 'I' for Inactive)
REMARK    1  A    between atoms: C_9  and  C_10
REMARK    2  A    between atoms: C_10  and  C_11
REMARK    3  A    between atoms: C_11  and  O_13
REMARK    4  A    between atoms: O_13  and  C_14
REMARK    5  A    between atoms: C_14  and  C_15
REMARK                            x       y       z     vdW  Elec       q    Type
REMARK                         _______ _______ _______ _____ _____    ______ ____
ROOT
ATOM      1  C   UNL     1      39.265  -7.884  20.804  0.00  0.00    -0.061 A 
ATOM      2  C   UNL     1      38.800  -8.350  19.578  0.00  0.00    -0.060 A 
ATOM      3  C   UNL     1      39.447  -8.012  18.386  0.00  0.00    -0.038 A 
ATOM      4  C   UNL     1      40.583  -7.201  18.478  0.00  0.00    +0.047 A 
ATOM      5  C   UNL     1      41.089  -6.730  19.690  0.00  0.00    +0.003 A 
ATOM      6  C   UNL     1      40.406  -7.077  20.876  0.00  0.00    -0.052 A 
ATOM      7  N   UNL     1      41.402  -6.719  17.485  0.00  0.00    -0.360 N 
ATOM      8  C   UNL     1      42.427  -5.991  18.028  0.00  0.00    +0.006 A 
ATOM      9  C   UNL     1      42.271  -5.971  19.403  0.00  0.00    -0.012 A 
ATOM     10  H   UNL     1      41.271  -6.875  16.522  0.00  0.00    +0.000 HD
ENDROOT
BRANCH   9  11
ATOM     11  C   UNL     1      43.194  -5.325  20.389  0.00  0.00    +0.072 C 
BRANCH  11  12
ATOM     12  C   UNL     1      43.494  -3.866  20.099  0.00  0.00    +0.312 C 
ATOM     13  O   UNL     1      42.754  -2.913  20.298  0.00  0.00    -0.250 OA
BRANCH  12  14
ATOM     14  O   UNL     1      44.733  -3.779  19.517  0.00  0.00    -0.465 OA
BRANCH  14  15
ATOM     15  C   UNL     1      44.866  -2.839  18.440  0.00  0.00    +0.090 C 
ATOM     16  C   UNL     1      45.083  -3.544  17.117  0.00  0.00    -0.031 C 
ENDBRANCH  14  15
ENDBRANCH  12  14
ENDBRANCH  11  12
ENDBRANCH   9  11
TORSDOF 4
ENDMDL
