MODEL 1
REMARK VINA RESULT:    -7.750      0.000      0.000
REMARK INTER + INTRA:          -9.766
REMARK INTER:                  -9.109
REMARK INTRA:                  -0.657
REMARK UNBOUND:                -0.657
REMARK  Name = 1c.sdf
REMARK  3 active torsions:
REMARK  status: ('A' for Active; 'I' for Inactive)
REMARK    1  A    between atoms: N_7  and  C_12
REMARK    2  A    between atoms: C_9  and  C_10
REMARK    3  A    between atoms: C_12  and  C_13
REMARK                            x       y       z     vdW  Elec       q    Type
REMARK                         _______ _______ _______ _____ _____    ______ ____
ROOT
ATOM      1  C   UNL     1      38.015  -8.347  20.011  0.00  0.00    -0.061 A 
ATOM      2  C   UNL     1      37.194  -7.484  20.729  0.00  0.00    -0.060 A 
ATOM      3  C   UNL     1      37.650  -6.225  21.148  0.00  0.00    -0.038 A 
ATOM      4  C   UNL     1      38.975  -5.857  20.855  0.00  0.00    +0.050 A 
ATOM      5  C   UNL     1      39.796  -6.689  20.077  0.00  0.00    +0.010 A 
ATOM      6  C   UNL     1      39.306  -7.946  19.659  0.00  0.00    -0.052 A 
ATOM      7  N   UNL     1      39.742  -4.753  21.210  0.00  0.00    -0.342 N 
ATOM      8  C   UNL     1      40.967  -4.831  20.589  0.00  0.00    +0.016 A 
ATOM      9  C   UNL     1      41.028  -6.011  19.876  0.00  0.00    +0.039 A 
ENDROOT
BRANCH   9  10
ATOM     10  C   UNL     1      42.166  -6.455  19.089  0.00  0.00    +0.152 C 
ATOM     11  O   UNL     1      42.197  -6.433  17.866  0.00  0.00    -0.296 OA
ENDBRANCH   9  10
BRANCH   7  12
ATOM     12  C   UNL     1      39.433  -3.725  22.211  0.00  0.00    +0.048 C 
BRANCH  12  13
ATOM     13  C   UNL     1      39.338  -4.294  23.606  0.00  0.00    -0.028 A 
ATOM     14  C   UNL     1      38.091  -4.394  24.238  0.00  0.00    -0.055 A 
ATOM     15  C   UNL     1      38.009  -4.709  25.595  0.00  0.00    -0.043 A 
ATOM     16  C   UNL     1      39.170  -4.967  26.318  0.00  0.00    +0.041 A 
ATOM     17  C   UNL     1      40.407  -4.989  25.678  0.00  0.00    -0.043 A 
ATOM     18  C   UNL     1      40.491  -4.657  24.322  0.00  0.00    -0.055 A 
ATOM     19 CL   UNL     1      39.082  -5.199  28.020  0.00  0.00    -0.084 Cl
ENDBRANCH  12  13
ENDBRANCH   7  12
TORSDOF 3
ENDMDL
MODEL 2
REMARK VINA RESULT:    -7.561      3.850      5.994
REMARK INTER + INTRA:          -9.544
REMARK INTER:                  -9.010
REMARK INTRA:                  -0.534
REMARK UNBOUND:                -0.657
REMARK  Name = 1c.sdf
REMARK  3 active torsions:
REMARK  status: ('A' for Active; 'I' for Inactive)
REMARK    1  A    between atoms: N_7  and  C_12
REMARK    2  A    between atoms: C_9  and  C_10
REMARK    3  A    between atoms: C_12  and  C_13
REMARK                            x       y       z     vdW  Elec       q    Type
REMARK                         _______ _______ _______ _____ _____    ______ ____
ROOT
ATOM      1  C   UNL     1      37.673  -7.793  20.111  0.00  0.00    -0.061 A 
ATOM      2  C   UNL     1      38.661  -8.366  19.317  0.00  0.00    -0.060 A 
ATOM      3  C   UNL     1      39.988  -7.911  19.364  0.00  0.00    -0.038 A 
ATOM      4  C   UNL     1      40.301  -6.835  20.212  0.00  0.00    +0.050 A 
ATOM      5  C   UNL     1      39.330  -6.288  21.067  0.00  0.00    +0.010 A 
ATOM      6  C   UNL     1      38.004  -6.774  21.006  0.00  0.00    -0.052 A 
ATOM      7  N   UNL     1      41.466  -6.102  20.406  0.00  0.00    -0.342 N 
ATOM      8  C   UNL     1      41.271  -5.198  21.424  0.00  0.00    +0.016 A 
ATOM      9  C   UNL     1      39.965  -5.293  21.857  0.00  0.00    +0.039 A 
ENDROOT
BRANCH   9  10
ATOM     10  C   UNL     1      39.374  -4.495  22.919  0.00  0.00    +0.152 C 
ATOM     11  O   UNL     1      38.679  -4.959  23.813  0.00  0.00    -0.296 OA
ENDBRANCH   9  10
BRANCH   7  12
ATOM     12  C   UNL     1      42.684  -6.113  19.588  0.00  0.00    +0.048 C 
BRANCH  12  13
ATOM     13  C   UNL     1      42.927  -4.788  18.906  0.00  0.00    -0.028 A 
ATOM     14  C   UNL     1      44.160  -4.139  19.056  0.00  0.00    -0.055 A 
ATOM     15  C   UNL     1      44.325  -2.824  18.618  0.00  0.00    -0.043 A 
ATOM     16  C   UNL     1      43.271  -2.165  17.992  0.00  0.00    +0.041 A 
ATOM     17  C   UNL     1      42.078  -2.835  17.729  0.00  0.00    -0.043 A 
ATOM     18  C   UNL     1      41.907  -4.147  18.183  0.00  0.00    -0.055 A 
ATOM     19 CL   UNL     1      43.422  -0.498  17.597  0.00  0.00    -0.084 Cl
ENDBRANCH  12  13
ENDBRANCH   7  12
TORSDOF 3
ENDMDL
MODEL 3
REMARK VINA RESULT:    -7.539      2.739      3.131
REMARK INTER + INTRA:          -9.518
REMARK INTER:                  -9.048
REMARK INTRA:                  -0.470
REMARK UNBOUND:                -0.657
REMARK  Name = 1c.sdf
REMARK  3 active torsions:
REMARK  status: ('A' for Active; 'I' for Inactive)
REMARK    1  A    between atoms: N_7  and  C_12
REMARK    2  A    between atoms: C_9  and  C_10
REMARK    3  A    between atoms: C_12  and  C_13
REMARK                            x       y       z     vdW  Elec       q    Type
REMARK                         _______ _______ _______ _____ _____    ______ ____
ROOT
ATOM      1  C   UNL     1      38.871  -8.391  18.688  0.00  0.00    -0.061 A 
ATOM      2  C   UNL     1      38.343  -8.112  19.945  0.00  0.00    -0.060 A 
ATOM      3  C   UNL     1      38.972  -7.209  20.815  0.00  0.00    -0.038 A 
ATOM      4  C   UNL     1      40.174  -6.607  20.407  0.00  0.00    +0.050 A 
ATOM      5  C   UNL     1      40.688  -6.828  19.118  0.00  0.00    +0.010 A 
ATOM      6  C   UNL     1      40.027  -7.735  18.259  0.00  0.00    -0.052 A 
ATOM      7  N   UNL     1      41.073  -5.771  21.059  0.00  0.00    -0.342 N 
ATOM      8  C   UNL     1      42.061  -5.389  20.179  0.00  0.00    +0.016 A 
ATOM      9  C   UNL     1      41.846  -6.020  18.972  0.00  0.00    +0.039 A 
ENDROOT
BRANCH   9  10
ATOM     10  C   UNL     1      42.681  -5.874  17.791  0.00  0.00    +0.152 C 
ATOM     11  O   UNL     1      42.903  -6.779  16.998  0.00  0.00    -0.296 OA
ENDBRANCH   9  10
BRANCH   7  12
ATOM     12  C   UNL     1      41.126  -5.443  22.488  0.00  0.00    +0.048 C 
BRANCH  12  13
ATOM     13  C   UNL     1      41.088  -3.954  22.736  0.00  0.00    -0.028 A 
ATOM     14  C   UNL     1      39.977  -3.204  22.328  0.00  0.00    -0.055 A 
ATOM     15  C   UNL     1      40.018  -1.809  22.351  0.00  0.00    -0.043 A 
ATOM     16  C   UNL     1      41.155  -1.157  22.820  0.00  0.00    +0.041 A 
ATOM     17  C   UNL     1      42.221  -1.888  23.340  0.00  0.00    -0.043 A 
ATOM     18  C   UNL     1      42.187  -3.286  23.301  0.00  0.00    -0.055 A 
ATOM     19 CL   UNL     1      41.267   0.555  22.700  0.00  0.00    -0.084 Cl
ENDBRANCH  12  13
ENDBRANCH   7  12
TORSDOF 3
ENDMDL
