MODEL 1
REMARK VINA RESULT:    -8.708      0.000      0.000
REMARK INTER + INTRA:          -9.507
REMARK INTER:                  -9.727
REMARK INTRA:                   0.220
REMARK UNBOUND:                 0.220
REMARK  Name = 1d.sdf
REMARK  2 active torsions:
REMARK  status: ('A' for Active; 'I' for Inactive)
REMARK    1  A    between atoms: C_9  and  C_10
REMARK    2  A    between atoms: C_12  and  C_13
REMARK                            x       y       z     vdW  Elec       q    Type
REMARK                         _______ _______ _______ _____ _____    ______ ____
ROOT
ATOM      1  C   UNL     1      45.419  -2.882  18.303  0.00  0.00    -0.061 A 
ATOM      2  C   UNL     1      44.841  -3.623  17.279  0.00  0.00    -0.060 A 
ATOM      3  C   UNL     1      43.852  -4.573  17.551  0.00  0.00    -0.037 A 
ATOM      4  C   UNL     1      43.450  -4.765  18.886  0.00  0.00    +0.057 A 
ATOM      5  C   UNL     1      44.017  -4.023  19.931  0.00  0.00    +0.011 A 
ATOM      6  C   UNL     1      45.018  -3.072  19.628  0.00  0.00    -0.052 A 
ATOM      7  N   UNL     1      42.460  -5.587  19.433  0.00  0.00    -0.282 N 
ATOM      8  C   UNL     1      42.472  -5.401  20.803  0.00  0.00    +0.024 A 
ATOM      9  C   UNL     1      43.393  -4.435  21.142  0.00  0.00    +0.040 A 
ATOM     10  C   UNL     1      41.575  -6.447  18.735  0.00  0.00    +0.263 C 
ATOM     11  O   UNL     1      41.899  -6.840  17.618  0.00  0.00    -0.267 OA
ENDROOT
BRANCH  10  12
ATOM     12  C   UNL     1      40.272  -6.888  19.299  0.00  0.00    +0.040 A 
ATOM     13  C   UNL     1      39.647  -6.128  20.296  0.00  0.00    -0.049 A 
ATOM     14  C   UNL     1      38.456  -6.571  20.867  0.00  0.00    -0.061 A 
ATOM     15  C   UNL     1      37.870  -7.754  20.420  0.00  0.00    -0.062 A 
ATOM     16  C   UNL     1      38.459  -8.482  19.385  0.00  0.00    -0.061 A 
ATOM     17  C   UNL     1      39.659  -8.049  18.816  0.00  0.00    -0.049 A 
ENDBRANCH  10  12
BRANCH   9  18
ATOM     18  C   UNL     1      43.642  -3.965  22.493  0.00  0.00    +0.152 C 
ATOM     19  O   UNL     1      44.710  -4.121  23.080  0.00  0.00    -0.296 OA
ENDBRANCH   9  18
TORSDOF 2
ENDMDL
MODEL 2
REMARK VINA RESULT:    -8.581      1.795      5.853
REMARK INTER + INTRA:          -9.365
REMARK INTER:                  -9.416
REMARK INTRA:                   0.052
REMARK UNBOUND:                 0.220
REMARK  Name = 1d.sdf
REMARK  2 active torsions:
REMARK  status: ('A' for Active; 'I' for Inactive)
REMARK    1  A    between atoms: C_9  and  C_10
REMARK    2  A    between atoms: C_12  and  C_13
REMARK                            x       y       z     vdW  Elec       q    Type
REMARK                         _______ _______ _______ _____ _____    ______ ____
ROOT
ATOM      1  C   UNL     1      37.864  -8.300  20.021  0.00  0.00    -0.061 A 
ATOM      2  C   UNL     1      38.735  -8.486  18.955  0.00  0.00    -0.060 A 
ATOM      3  C   UNL     1      39.752  -7.564  18.690  0.00  0.00    -0.037 A 
ATOM      4  C   UNL     1      39.879  -6.440  19.528  0.00  0.00    +0.057 A 
ATOM      5  C   UNL     1      39.014  -6.239  20.612  0.00  0.00    +0.011 A 
ATOM      6  C   UNL     1      37.991  -7.185  20.854  0.00  0.00    -0.052 A 
ATOM      7  N   UNL     1      40.822  -5.409  19.537  0.00  0.00    -0.282 N 
ATOM      8  C   UNL     1      40.494  -4.549  20.570  0.00  0.00    +0.024 A 
ATOM      9  C   UNL     1      39.409  -5.038  21.264  0.00  0.00    +0.040 A 
ATOM     10  C   UNL     1      41.936  -5.254  18.673  0.00  0.00    +0.263 C 
ATOM     11  O   UNL     1      41.910  -5.812  17.579  0.00  0.00    -0.267 OA
ENDROOT
BRANCH  10  12
ATOM     12  C   UNL     1      43.132  -4.451  19.038  0.00  0.00    +0.040 A 
ATOM     13  C   UNL     1      43.583  -4.430  20.365  0.00  0.00    -0.049 A 
ATOM     14  C   UNL     1      44.667  -3.630  20.720  0.00  0.00    -0.061 A 
ATOM     15  C   UNL     1      45.323  -2.878  19.747  0.00  0.00    -0.062 A 
ATOM     16  C   UNL     1      44.914  -2.944  18.414  0.00  0.00    -0.061 A 
ATOM     17  C   UNL     1      43.820  -3.735  18.053  0.00  0.00    -0.049 A 
ENDBRANCH  10  12
BRANCH   9  18
ATOM     18  C   UNL     1      38.820  -4.406  22.431  0.00  0.00    +0.152 C 
ATOM     19  O   UNL     1      38.668  -4.977  23.508  0.00  0.00    -0.296 OA
ENDBRANCH   9  18
TORSDOF 2
ENDMDL
MODEL 3
REMARK VINA RESULT:    -8.456      3.202      5.689
REMARK INTER + INTRA:          -9.225
REMARK INTER:                  -8.910
REMARK INTRA:                  -0.315
REMARK UNBOUND:                 0.220
REMARK  Name = 1d.sdf
REMARK  2 active torsions:
REMARK  status: ('A' for Active; 'I' for Inactive)
REMARK    1  A    between atoms: C_9  and  C_10
REMARK    2  A    between atoms: C_12  and  C_13
REMARK                            x       y       z     vdW  Elec       q    Type
REMARK                         _______ _______ _______ _____ _____    ______ ____
ROOT
ATOM      1  C   UNL     1      41.093  -7.610  17.468  0.00  0.00    -0.061 A 
ATOM      2  C   UNL     1      41.808  -6.468  17.807  0.00  0.00    -0.060 A 
ATOM      3  C   UNL     1      41.440  -5.692  18.910  0.00  0.00    -0.037 A 
ATOM      4  C   UNL     1      40.327  -6.091  19.674  0.00  0.00    +0.057 A 
ATOM      5  C   UNL     1      39.597  -7.243  19.350  0.00  0.00    +0.011 A 
ATOM      6  C   UNL     1      39.990  -8.006  18.228  0.00  0.00    -0.052 A 
ATOM      7  N   UNL     1      39.780  -5.550  20.841  0.00  0.00    -0.282 N 
ATOM      8  C   UNL     1      38.685  -6.322  21.186  0.00  0.00    +0.024 A 
ATOM      9  C   UNL     1      38.557  -7.379  20.312  0.00  0.00    +0.040 A 
ATOM     10  C   UNL     1      40.250  -4.431  21.573  0.00  0.00    +0.263 C 
ATOM     11  O   UNL     1      40.943  -3.601  20.993  0.00  0.00    -0.267 OA
ENDROOT
BRANCH  10  12
ATOM     12  C   UNL     1      39.941  -4.226  23.013  0.00  0.00    +0.040 A 
ATOM     13  C   UNL     1      38.886  -3.384  23.390  0.00  0.00    -0.049 A 
ATOM     14  C   UNL     1      38.634  -3.143  24.739  0.00  0.00    -0.061 A 
ATOM     15  C   UNL     1      39.411  -3.768  25.713  0.00  0.00    -0.062 A 
ATOM     16  C   UNL     1      40.424  -4.654  25.341  0.00  0.00    -0.061 A 
ATOM     17  C   UNL     1      40.689  -4.891  23.990  0.00  0.00    -0.049 A 
ENDBRANCH  10  12
BRANCH   9  18
ATOM     18  C   UNL     1      37.537  -8.408  20.400  0.00  0.00    +0.152 C 
ATOM     19  O   UNL     1      36.331  -8.171  20.382  0.00  0.00    -0.296 OA
ENDBRANCH   9  18
TORSDOF 2
ENDMDL
