MODEL 1
REMARK VINA RESULT:    -7.538      0.000      0.000
REMARK INTER + INTRA:         -11.165
REMARK INTER:                  -9.301
REMARK INTRA:                  -1.864
REMARK UNBOUND:                -1.864
REMARK  Name = 20.sdf
REMARK  4 active torsions:
REMARK  status: ('A' for Active; 'I' for Inactive)
REMARK    1  A    between atoms: C_9  and  C_10
REMARK    2  A    between atoms: C_10  and  O_11
REMARK    3  A    between atoms: O_11  and  C_12
REMARK    4  A    between atoms: N_13  and  C_15
REMARK                            x       y       z     vdW  Elec       q    Type
REMARK                         _______ _______ _______ _____ _____    ______ ____
ROOT
ATOM      1  C   UNL     1      41.260  -4.749  23.132  0.00  0.00    +0.121 C 
ENDROOT
BRANCH   1  10
ATOM      2  C   UNL     1      40.171  -8.359  20.317  0.00  0.00    -0.061 A 
ATOM      3  C   UNL     1      38.851  -8.316  19.878  0.00  0.00    -0.060 A 
ATOM      4  C   UNL     1      38.002  -7.273  20.257  0.00  0.00    -0.038 A 
ATOM      5  C   UNL     1      38.525  -6.285  21.103  0.00  0.00    +0.047 A 
ATOM      6  C   UNL     1      39.840  -6.304  21.570  0.00  0.00    +0.006 A 
ATOM      7  C   UNL     1      40.677  -7.363  21.161  0.00  0.00    -0.052 A 
ATOM      8  N   UNL     1      37.925  -5.165  21.627  0.00  0.00    -0.360 N 
ATOM      9  C   UNL     1      38.810  -4.476  22.410  0.00  0.00    +0.009 A 
ATOM     10  C   UNL     1      40.015  -5.154  22.409  0.00  0.00    +0.015 A 
ATOM     11  H   UNL     1      36.992  -4.896  21.462  0.00  0.00    +0.000 HD
ENDBRANCH   1  10
BRANCH   1  12
ATOM     12  O   UNL     1      42.365  -4.599  22.226  0.00  0.00    -0.445 OA
BRANCH  12  13
ATOM     13  C   UNL     1      42.537  -3.382  21.668  0.00  0.00    +0.405 C 
ATOM     14  N   UNL     1      42.375  -3.323  20.307  0.00  0.00    -0.251 N 
ATOM     15  O   UNL     1      42.859  -2.370  22.284  0.00  0.00    -0.226 OA
ATOM     16  H   UNL     1      42.443  -2.413  19.936  0.00  0.00    +0.000 HD
BRANCH  14  17
ATOM     17  C   UNL     1      42.129  -4.316  19.340  0.00  0.00    +0.036 A 
ATOM     18  C   UNL     1      40.898  -4.545  18.724  0.00  0.00    -0.040 A 
ATOM     19  C   UNL     1      40.731  -5.619  17.841  0.00  0.00    -0.060 A 
ATOM     20  C   UNL     1      41.798  -6.467  17.555  0.00  0.00    -0.062 A 
ATOM     21  C   UNL     1      43.042  -6.224  18.126  0.00  0.00    -0.060 A 
ATOM     22  C   UNL     1      43.207  -5.151  19.007  0.00  0.00    -0.040 A 
ENDBRANCH  14  17
ENDBRANCH  12  13
ENDBRANCH   1  12
TORSDOF 4
ENDMDL
MODEL 2
REMARK VINA RESULT:    -7.066      3.156      4.949
REMARK INTER + INTRA:         -10.582
REMARK INTER:                 -10.066
REMARK INTRA:                  -0.516
REMARK UNBOUND:                -1.864
REMARK  Name = 20.sdf
REMARK  4 active torsions:
REMARK  status: ('A' for Active; 'I' for Inactive)
REMARK    1  A    between atoms: C_9  and  C_10
REMARK    2  A    between atoms: C_10  and  O_11
REMARK    3  A    between atoms: O_11  and  C_12
REMARK    4  A    between atoms: N_13  and  C_15
REMARK                            x       y       z     vdW  Elec       q    Type
REMARK                         _______ _______ _______ _____ _____    ______ ____
ROOT
ATOM      1  C   UNL     1      40.932  -4.417  24.235  0.00  0.00    +0.121 C 
ENDROOT
BRANCH   1  10
ATOM      2  C   UNL     1      39.111  -6.084  28.240  0.00  0.00    -0.061 A 
ATOM      3  C   UNL     1      37.831  -5.596  28.490  0.00  0.00    -0.060 A 
ATOM      4  C   UNL     1      37.209  -4.722  27.595  0.00  0.00    -0.038 A 
ATOM      5  C   UNL     1      37.925  -4.347  26.449  0.00  0.00    +0.047 A 
ATOM      6  C   UNL     1      39.212  -4.810  26.174  0.00  0.00    +0.006 A 
ATOM      7  C   UNL     1      39.810  -5.701  27.090  0.00  0.00    -0.052 A 
ATOM      8  N   UNL     1      37.564  -3.514  25.417  0.00  0.00    -0.360 N 
ATOM      9  C   UNL     1      38.576  -3.429  24.502  0.00  0.00    +0.009 A 
ATOM     10  C   UNL     1      39.627  -4.216  24.936  0.00  0.00    +0.015 A 
ATOM     11  H   UNL     1      36.701  -3.045  25.347  0.00  0.00    +0.000 HD
ENDBRANCH   1  10
BRANCH   1  12
ATOM     12  O   UNL     1      40.754  -5.105  22.986  0.00  0.00    -0.445 OA
BRANCH  12  13
ATOM     13  C   UNL     1      40.831  -4.362  21.862  0.00  0.00    +0.405 C 
ATOM     14  N   UNL     1      40.153  -4.853  20.775  0.00  0.00    -0.251 N 
ATOM     15  O   UNL     1      41.486  -3.329  21.751  0.00  0.00    -0.226 OA
ATOM     16  H   UNL     1      40.174  -4.259  19.990  0.00  0.00    +0.000 HD
BRANCH  14  17
ATOM     17  C   UNL     1      39.432  -6.045  20.571  0.00  0.00    +0.036 A 
ATOM     18  C   UNL     1      39.927  -7.178  19.925  0.00  0.00    -0.040 A 
ATOM     19  C   UNL     1      39.099  -8.283  19.688  0.00  0.00    -0.060 A 
ATOM     20  C   UNL     1      37.772  -8.270  20.107  0.00  0.00    -0.062 A 
ATOM     21  C   UNL     1      37.277  -7.165  20.793  0.00  0.00    -0.060 A 
ATOM     22  C   UNL     1      38.105  -6.063  21.029  0.00  0.00    -0.040 A 
ENDBRANCH  14  17
ENDBRANCH  12  13
ENDBRANCH   1  12
TORSDOF 4
ENDMDL
MODEL 3
REMARK VINA RESULT:    -6.993      3.504      6.090
REMARK INTER + INTRA:         -10.493
REMARK INTER:                 -10.045
REMARK INTRA:                  -0.448
REMARK UNBOUND:                -1.864
REMARK  Name = 20.sdf
REMARK  4 active torsions:
REMARK  status: ('A' for Active; 'I' for Inactive)
REMARK    1  A    between atoms: C_9  and  C_10
REMARK    2  A    between atoms: C_10  and  O_11
REMARK    3  A    between atoms: O_11  and  C_12
REMARK    4  A    between atoms: N_13  and  C_15
REMARK                            x       y       z     vdW  Elec       q    Type
REMARK                         _______ _______ _______ _____ _____    ______ ____
ROOT
ATOM      1  C   UNL     1      38.569  -4.460  22.680  0.00  0.00    +0.121 C 
ENDROOT
BRANCH   1  10
ATOM      2  C   UNL     1      37.922  -8.236  19.948  0.00  0.00    -0.061 A 
ATOM      3  C   UNL     1      38.918  -8.378  18.986  0.00  0.00    -0.060 A 
ATOM      4  C   UNL     1      39.976  -7.469  18.910  0.00  0.00    -0.038 A 
ATOM      5  C   UNL     1      39.989  -6.407  19.826  0.00  0.00    +0.047 A 
ATOM      6  C   UNL     1      39.000  -6.231  20.795  0.00  0.00    +0.006 A 
ATOM      7  C   UNL     1      37.950  -7.171  20.856  0.00  0.00    -0.052 A 
ATOM      8  N   UNL     1      40.892  -5.383  19.976  0.00  0.00    -0.360 N 
ATOM      9  C   UNL     1      40.511  -4.562  21.001  0.00  0.00    +0.009 A 
ATOM     10  C   UNL     1      39.332  -5.049  21.537  0.00  0.00    +0.015 A 
ATOM     11  H   UNL     1      41.698  -5.257  19.425  0.00  0.00    +0.000 HD
ENDBRANCH   1  10
BRANCH   1  12
ATOM     12  O   UNL     1      39.259  -4.657  23.925  0.00  0.00    -0.445 OA
BRANCH  12  13
ATOM     13  C   UNL     1      39.766  -3.558  24.523  0.00  0.00    +0.405 C 
ATOM     14  N   UNL     1      39.783  -3.579  25.894  0.00  0.00    -0.251 N 
ATOM     15  O   UNL     1      40.161  -2.558  23.928  0.00  0.00    -0.226 OA
ATOM     16  H   UNL     1      40.217  -2.794  26.301  0.00  0.00    +0.000 HD
BRANCH  14  17
ATOM     17  C   UNL     1      39.301  -4.513  26.831  0.00  0.00    +0.036 A 
ATOM     18  C   UNL     1      39.870  -5.762  27.081  0.00  0.00    -0.040 A 
ATOM     19  C   UNL     1      39.261  -6.659  27.968  0.00  0.00    -0.060 A 
ATOM     20  C   UNL     1      38.083  -6.310  28.623  0.00  0.00    -0.062 A 
ATOM     21  C   UNL     1      37.529  -5.051  28.418  0.00  0.00    -0.060 A 
ATOM     22  C   UNL     1      38.139  -4.156  27.533  0.00  0.00    -0.040 A 
ENDBRANCH  14  17
ENDBRANCH  12  13
ENDBRANCH   1  12
TORSDOF 4
ENDMDL
