MODEL 1
REMARK VINA RESULT:    -9.769      0.000      0.000
REMARK INTER + INTRA:         -13.859
REMARK INTER:                 -13.195
REMARK INTRA:                  -0.664
REMARK UNBOUND:                -0.664
REMARK  Name = 22c.sdf
REMARK  7 active torsions:
REMARK  status: ('A' for Active; 'I' for Inactive)
REMARK    1  A    between atoms: N_7  and  C_12
REMARK    2  A    between atoms: C_9  and  C_10
REMARK    3  A    between atoms: N_11  and  N_19
REMARK    4  A    between atoms: C_12  and  C_13
REMARK    5  A    between atoms: C_20  and  C_22
REMARK    6  A    between atoms: C_25  and  O_29
REMARK    7  A    between atoms: O_29  and  C_30
REMARK                            x       y       z     vdW  Elec       q    Type
REMARK                         _______ _______ _______ _____ _____    ______ ____
ROOT
ATOM      1  C   UNL     1      37.206  -7.677  20.534  0.00  0.00    -0.061 A 
ATOM      2  C   UNL     1      37.969  -8.350  19.592  0.00  0.00    -0.060 A 
ATOM      3  C   UNL     1      39.266  -7.923  19.269  0.00  0.00    -0.038 A 
ATOM      4  C   UNL     1      39.775  -6.781  19.913  0.00  0.00    +0.050 A 
ATOM      5  C   UNL     1      39.043  -6.128  20.916  0.00  0.00    +0.009 A 
ATOM      6  C   UNL     1      37.737  -6.580  21.217  0.00  0.00    -0.052 A 
ATOM      7  N   UNL     1      40.957  -6.076  19.755  0.00  0.00    -0.342 N 
ATOM      8  C   UNL     1      41.021  -5.072  20.691  0.00  0.00    +0.015 A 
ATOM      9  C   UNL     1      39.864  -5.085  21.445  0.00  0.00    +0.020 A 
ENDROOT
BRANCH   9  10
ATOM     10  C   UNL     1      39.554  -4.201  22.551  0.00  0.00    +0.055 C 
ATOM     11  N   UNL     1      39.931  -2.966  22.517  0.00  0.00    -0.187 NA
BRANCH  11  12
ATOM     12  N   UNL     1      39.606  -2.203  23.611  0.00  0.00    -0.203 N 
ATOM     13  C   UNL     1      40.618  -1.654  24.381  0.00  0.00    +0.263 C 
ATOM     14  O   UNL     1      41.824  -1.776  24.158  0.00  0.00    -0.268 OA
ATOM     15  H   UNL     1      38.663  -2.049  23.845  0.00  0.00    +0.000 HD
BRANCH  13  16
ATOM     16  C   UNL     1      40.187  -0.820  25.545  0.00  0.00    +0.039 A 
ATOM     17  C   UNL     1      39.502  -1.349  26.643  0.00  0.00    -0.046 A 
ATOM     18  C   UNL     1      39.106  -0.506  27.690  0.00  0.00    -0.019 A 
ATOM     19  C   UNL     1      39.412   0.859  27.669  0.00  0.00    +0.120 A 
ATOM     20  C   UNL     1      40.118   1.384  26.589  0.00  0.00    -0.019 A 
ATOM     21  C   UNL     1      40.507   0.547  25.534  0.00  0.00    -0.046 A 
BRANCH  19  22
ATOM     22  O   UNL     1      38.918   1.581  28.720  0.00  0.00    -0.495 OA
ATOM     23  C   UNL     1      38.075   2.681  28.395  0.00  0.00    +0.079 C 
ENDBRANCH  19  22
ENDBRANCH  13  16
ENDBRANCH  11  12
ENDBRANCH   9  10
BRANCH   7  24
ATOM     24  C   UNL     1      41.945  -6.232  18.682  0.00  0.00    +0.048 C 
BRANCH  24  25
ATOM     25  C   UNL     1      42.473  -4.903  18.200  0.00  0.00    -0.028 A 
ATOM     26  C   UNL     1      43.852  -4.648  18.199  0.00  0.00    -0.055 A 
ATOM     27  C   UNL     1      44.336  -3.365  17.936  0.00  0.00    -0.043 A 
ATOM     28  C   UNL     1      43.446  -2.336  17.640  0.00  0.00    +0.041 A 
ATOM     29  C   UNL     1      42.081  -2.596  17.536  0.00  0.00    -0.043 A 
ATOM     30  C   UNL     1      41.596  -3.876  17.813  0.00  0.00    -0.055 A 
ATOM     31 CL   UNL     1      44.030  -0.730  17.451  0.00  0.00    -0.084 Cl
ENDBRANCH  24  25
ENDBRANCH   7  24
TORSDOF 6
ENDMDL
MODEL 2
REMARK VINA RESULT:    -9.118      2.996      3.763
REMARK INTER + INTRA:         -12.980
REMARK INTER:                 -11.976
REMARK INTRA:                  -1.005
REMARK UNBOUND:                -0.664
REMARK  Name = 22c.sdf
REMARK  7 active torsions:
REMARK  status: ('A' for Active; 'I' for Inactive)
REMARK    1  A    between atoms: N_7  and  C_12
REMARK    2  A    between atoms: C_9  and  C_10
REMARK    3  A    between atoms: N_11  and  N_19
REMARK    4  A    between atoms: C_12  and  C_13
REMARK    5  A    between atoms: C_20  and  C_22
REMARK    6  A    between atoms: C_25  and  O_29
REMARK    7  A    between atoms: O_29  and  C_30
REMARK                            x       y       z     vdW  Elec       q    Type
REMARK                         _______ _______ _______ _____ _____    ______ ____
ROOT
ATOM      1  C   UNL     1      40.187  -7.403  18.160  0.00  0.00    -0.061 A 
ATOM      2  C   UNL     1      41.352  -7.239  17.427  0.00  0.00    -0.060 A 
ATOM      3  C   UNL     1      42.419  -6.473  17.921  0.00  0.00    -0.038 A 
ATOM      4  C   UNL     1      42.277  -5.859  19.177  0.00  0.00    +0.050 A 
ATOM      5  C   UNL     1      41.132  -6.067  19.961  0.00  0.00    +0.009 A 
ATOM      6  C   UNL     1      40.072  -6.841  19.434  0.00  0.00    -0.052 A 
ATOM      7  N   UNL     1      43.095  -4.992  19.885  0.00  0.00    -0.342 N 
ATOM      8  C   UNL     1      42.539  -4.738  21.116  0.00  0.00    +0.015 A 
ATOM      9  C   UNL     1      41.334  -5.405  21.211  0.00  0.00    +0.020 A 
ENDROOT
BRANCH   9  10
ATOM     10  C   UNL     1      40.451  -5.415  22.360  0.00  0.00    +0.055 C 
ATOM     11  N   UNL     1      40.807  -4.829  23.455  0.00  0.00    -0.187 NA
BRANCH  11  12
ATOM     12  N   UNL     1      39.917  -4.897  24.497  0.00  0.00    -0.203 N 
ATOM     13  C   UNL     1      39.324  -3.735  24.962  0.00  0.00    +0.263 C 
ATOM     14  O   UNL     1      39.515  -2.608  24.500  0.00  0.00    -0.268 OA
ATOM     15  H   UNL     1      39.702  -5.765  24.909  0.00  0.00    +0.000 HD
BRANCH  13  16
ATOM     16  C   UNL     1      38.351  -3.891  26.086  0.00  0.00    +0.039 A 
ATOM     17  C   UNL     1      37.104  -3.259  26.101  0.00  0.00    -0.046 A 
ATOM     18  C   UNL     1      36.249  -3.429  27.198  0.00  0.00    -0.019 A 
ATOM     19  C   UNL     1      36.613  -4.247  28.273  0.00  0.00    +0.120 A 
ATOM     20  C   UNL     1      37.843  -4.899  28.249  0.00  0.00    -0.019 A 
ATOM     21  C   UNL     1      38.706  -4.725  27.158  0.00  0.00    -0.046 A 
BRANCH  19  22
ATOM     22  O   UNL     1      35.718  -4.281  29.306  0.00  0.00    -0.495 OA
ATOM     23  C   UNL     1      34.919  -3.118  29.494  0.00  0.00    +0.079 C 
ENDBRANCH  19  22
ENDBRANCH  13  16
ENDBRANCH  11  12
ENDBRANCH   9  10
BRANCH   7  24
ATOM     24  C   UNL     1      44.292  -4.302  19.391  0.00  0.00    +0.048 C 
BRANCH  24  25
ATOM     25  C   UNL     1      44.046  -2.831  19.163  0.00  0.00    -0.028 A 
ATOM     26  C   UNL     1      43.331  -2.400  18.036  0.00  0.00    -0.055 A 
ATOM     27  C   UNL     1      43.260  -1.042  17.719  0.00  0.00    -0.043 A 
ATOM     28  C   UNL     1      43.876  -0.105  18.544  0.00  0.00    +0.041 A 
ATOM     29  C   UNL     1      44.500  -0.507  19.722  0.00  0.00    -0.043 A 
ATOM     30  C   UNL     1      44.584  -1.867  20.033  0.00  0.00    -0.055 A 
ATOM     31 CL   UNL     1      43.904   1.552  18.081  0.00  0.00    -0.084 Cl
ENDBRANCH  24  25
ENDBRANCH   7  24
TORSDOF 6
ENDMDL
MODEL 3
REMARK VINA RESULT:    -8.355      3.663      5.726
REMARK INTER + INTRA:         -11.950
REMARK INTER:                 -11.363
REMARK INTRA:                  -0.587
REMARK UNBOUND:                -0.664
REMARK  Name = 22c.sdf
REMARK  7 active torsions:
REMARK  status: ('A' for Active; 'I' for Inactive)
REMARK    1  A    between atoms: N_7  and  C_12
REMARK    2  A    between atoms: C_9  and  C_10
REMARK    3  A    between atoms: N_11  and  N_19
REMARK    4  A    between atoms: C_12  and  C_13
REMARK    5  A    between atoms: C_20  and  C_22
REMARK    6  A    between atoms: C_25  and  O_29
REMARK    7  A    between atoms: O_29  and  C_30
REMARK                            x       y       z     vdW  Elec       q    Type
REMARK                         _______ _______ _______ _____ _____    ______ ____
ROOT
ATOM      1  C   UNL     1      44.469   0.627  22.207  0.00  0.00    -0.061 A 
ATOM      2  C   UNL     1      44.947   0.454  20.917  0.00  0.00    -0.060 A 
ATOM      3  C   UNL     1      44.444  -0.558  20.086  0.00  0.00    -0.038 A 
ATOM      4  C   UNL     1      43.448  -1.409  20.595  0.00  0.00    +0.050 A 
ATOM      5  C   UNL     1      42.906  -1.208  21.874  0.00  0.00    +0.009 A 
ATOM      6  C   UNL     1      43.437  -0.182  22.689  0.00  0.00    -0.052 A 
ATOM      7  N   UNL     1      42.823  -2.528  20.067  0.00  0.00    -0.342 N 
ATOM      8  C   UNL     1      41.849  -2.962  20.933  0.00  0.00    +0.015 A 
ATOM      9  C   UNL     1      41.853  -2.156  22.055  0.00  0.00    +0.020 A 
ENDROOT
BRANCH   9  10
ATOM     10  C   UNL     1      40.960  -2.268  23.191  0.00  0.00    +0.055 C 
ATOM     11  N   UNL     1      41.045  -3.286  23.982  0.00  0.00    -0.187 NA
BRANCH  11  12
ATOM     12  N   UNL     1      40.153  -3.318  25.025  0.00  0.00    -0.203 N 
ATOM     13  C   UNL     1      39.066  -4.174  24.964  0.00  0.00    +0.263 C 
ATOM     14  O   UNL     1      38.826  -4.949  24.036  0.00  0.00    -0.268 OA
ATOM     15  H   UNL     1      40.286  -2.738  25.809  0.00  0.00    +0.000 HD
BRANCH  13  16
ATOM     16  C   UNL     1      38.150  -4.168  26.145  0.00  0.00    +0.039 A 
ATOM     17  C   UNL     1      38.365  -4.962  27.275  0.00  0.00    -0.046 A 
ATOM     18  C   UNL     1      37.453  -4.925  28.338  0.00  0.00    -0.019 A 
ATOM     19  C   UNL     1      36.338  -4.081  28.300  0.00  0.00    +0.120 A 
ATOM     20  C   UNL     1      36.135  -3.269  27.187  0.00  0.00    -0.019 A 
ATOM     21  C   UNL     1      37.040  -3.309  26.117  0.00  0.00    -0.046 A 
BRANCH  19  22
ATOM     22  O   UNL     1      35.495  -4.183  29.371  0.00  0.00    -0.495 OA
ATOM     23  C   UNL     1      34.794  -3.002  29.743  0.00  0.00    +0.079 C 
ENDBRANCH  19  22
ENDBRANCH  13  16
ENDBRANCH  11  12
ENDBRANCH   9  10
BRANCH   7  24
ATOM     24  C   UNL     1      43.203  -3.266  18.856  0.00  0.00    +0.048 C 
BRANCH  24  25
ATOM     25  C   UNL     1      42.488  -4.591  18.753  0.00  0.00    -0.028 A 
ATOM     26  C   UNL     1      41.377  -4.731  17.908  0.00  0.00    -0.055 A 
ATOM     27  C   UNL     1      40.599  -5.890  17.947  0.00  0.00    -0.043 A 
ATOM     28  C   UNL     1      40.946  -6.928  18.807  0.00  0.00    +0.041 A 
ATOM     29  C   UNL     1      42.105  -6.848  19.576  0.00  0.00    -0.043 A 
ATOM     30  C   UNL     1      42.875  -5.682  19.548  0.00  0.00    -0.055 A 
ATOM     31 CL   UNL     1      39.913  -8.296  18.952  0.00  0.00    -0.084 Cl
ENDBRANCH  24  25
ENDBRANCH   7  24
TORSDOF 6
ENDMDL
