MODEL 1
REMARK VINA RESULT:    -9.810      0.000      0.000
REMARK INTER + INTRA:         -13.592
REMARK INTER:                 -12.964
REMARK INTRA:                  -0.628
REMARK UNBOUND:                -0.628
REMARK  Name = 24a.sdf
REMARK  6 active torsions:
REMARK  status: ('A' for Active; 'I' for Inactive)
REMARK    1  A    between atoms: N_7  and  C_10
REMARK    2  A    between atoms: C_9  and  C_18
REMARK    3  A    between atoms: C_10  and  C_11
REMARK    4  A    between atoms: N_19  and  N_20
REMARK    5  A    between atoms: C_21  and  C_23
REMARK    6  A    between atoms: C_26  and  O_29
REMARK                            x       y       z     vdW  Elec       q    Type
REMARK                         _______ _______ _______ _____ _____    ______ ____
ROOT
ATOM      1  C   UNL     1      37.272  -7.748  20.542  0.00  0.00    -0.061 A 
ATOM      2  C   UNL     1      38.003  -8.393  19.556  0.00  0.00    -0.060 A 
ATOM      3  C   UNL     1      39.294  -7.961  19.208  0.00  0.00    -0.038 A 
ATOM      4  C   UNL     1      39.823  -6.821  19.858  0.00  0.00    +0.050 A 
ATOM      5  C   UNL     1      39.119  -6.200  20.900  0.00  0.00    +0.009 A 
ATOM      6  C   UNL     1      37.829  -6.675  21.239  0.00  0.00    -0.052 A 
ATOM      7  N   UNL     1      40.990  -6.102  19.664  0.00  0.00    -0.342 N 
ATOM      8  C   UNL     1      41.075  -5.117  20.625  0.00  0.00    +0.015 A 
ATOM      9  C   UNL     1      39.950  -5.161  21.425  0.00  0.00    +0.020 A 
ENDROOT
BRANCH   9  10
ATOM     10  C   UNL     1      39.679  -4.312  22.570  0.00  0.00    +0.055 C 
ATOM     11  N   UNL     1      39.855  -3.033  22.487  0.00  0.00    -0.187 NA
BRANCH  11  12
ATOM     12  N   UNL     1      39.598  -2.316  23.624  0.00  0.00    -0.203 N 
ATOM     13  C   UNL     1      40.593  -1.513  24.170  0.00  0.00    +0.263 C 
ATOM     14  O   UNL     1      41.723  -1.378  23.699  0.00  0.00    -0.268 OA
ATOM     15  H   UNL     1      38.713  -2.368  24.052  0.00  0.00    +0.000 HD
BRANCH  13  16
ATOM     16  C   UNL     1      40.231  -0.741  25.392  0.00  0.00    +0.039 A 
ATOM     17  C   UNL     1      40.489   0.631  25.520  0.00  0.00    -0.046 A 
ATOM     18  C   UNL     1      40.154   1.305  26.700  0.00  0.00    -0.019 A 
ATOM     19  C   UNL     1      39.552   0.605  27.744  0.00  0.00    +0.117 A 
ATOM     20  C   UNL     1      39.250  -0.745  27.617  0.00  0.00    -0.019 A 
ATOM     21  C   UNL     1      39.587  -1.417  26.440  0.00  0.00    -0.046 A 
BRANCH  19  22
ATOM     22  O   UNL     1      39.236   1.216  28.920  0.00  0.00    -0.507 OA
ATOM     23  H   UNL     1      38.699   1.984  28.919  0.00  0.00    +0.000 HD
ENDBRANCH  19  22
ENDBRANCH  13  16
ENDBRANCH  11  12
ENDBRANCH   9  10
BRANCH   7  24
ATOM     24  C   UNL     1      41.946  -6.214  18.557  0.00  0.00    +0.048 C 
BRANCH  24  25
ATOM     25  C   UNL     1      42.485  -4.873  18.113  0.00  0.00    -0.028 A 
ATOM     26  C   UNL     1      43.867  -4.636  18.095  0.00  0.00    -0.056 A 
ATOM     27  C   UNL     1      44.362  -3.344  17.904  0.00  0.00    -0.047 A 
ATOM     28  C   UNL     1      43.477  -2.290  17.686  0.00  0.00    +0.018 A 
ATOM     29  C   UNL     1      42.110  -2.530  17.575  0.00  0.00    -0.047 A 
ATOM     30  C   UNL     1      41.616  -3.820  17.785  0.00  0.00    -0.056 A 
ATOM     31 BR   UNL     1      44.130  -0.517  17.631  0.00  0.00    -0.050 Br
ENDBRANCH  24  25
ENDBRANCH   7  24
TORSDOF 6
ENDMDL
MODEL 2
REMARK VINA RESULT:    -9.295      2.977      3.695
REMARK INTER + INTRA:         -12.912
REMARK INTER:                 -11.985
REMARK INTRA:                  -0.926
REMARK UNBOUND:                -0.628
REMARK  Name = 24a.sdf
REMARK  6 active torsions:
REMARK  status: ('A' for Active; 'I' for Inactive)
REMARK    1  A    between atoms: N_7  and  C_10
REMARK    2  A    between atoms: C_9  and  C_18
REMARK    3  A    between atoms: C_10  and  C_11
REMARK    4  A    between atoms: N_19  and  N_20
REMARK    5  A    between atoms: C_21  and  C_23
REMARK    6  A    between atoms: C_26  and  O_29
REMARK                            x       y       z     vdW  Elec       q    Type
REMARK                         _______ _______ _______ _____ _____    ______ ____
ROOT
ATOM      1  C   UNL     1      40.177  -7.332  18.087  0.00  0.00    -0.061 A 
ATOM      2  C   UNL     1      41.415  -7.299  17.463  0.00  0.00    -0.060 A 
ATOM      3  C   UNL     1      42.473  -6.537  17.987  0.00  0.00    -0.038 A 
ATOM      4  C   UNL     1      42.239  -5.764  19.148  0.00  0.00    +0.050 A 
ATOM      5  C   UNL     1      41.012  -5.839  19.823  0.00  0.00    +0.009 A 
ATOM      6  C   UNL     1      39.974  -6.634  19.278  0.00  0.00    -0.052 A 
ATOM      7  N   UNL     1      43.025  -4.847  19.825  0.00  0.00    -0.342 N 
ATOM      8  C   UNL     1      42.356  -4.432  20.957  0.00  0.00    +0.015 A 
ATOM      9  C   UNL     1      41.118  -5.042  21.005  0.00  0.00    +0.020 A 
ENDROOT
BRANCH   9  10
ATOM     10  C   UNL     1      40.130  -4.893  22.057  0.00  0.00    +0.055 C 
ATOM     11  N   UNL     1      40.343  -4.078  23.039  0.00  0.00    -0.187 NA
BRANCH  11  12
ATOM     12  N   UNL     1      39.367  -4.021  23.997  0.00  0.00    -0.203 N 
ATOM     13  C   UNL     1      39.633  -4.490  25.278  0.00  0.00    +0.263 C 
ATOM     14  O   UNL     1      40.711  -4.961  25.644  0.00  0.00    -0.268 OA
ATOM     15  H   UNL     1      38.482  -3.650  23.779  0.00  0.00    +0.000 HD
BRANCH  13  16
ATOM     16  C   UNL     1      38.531  -4.370  26.274  0.00  0.00    +0.039 A 
ATOM     17  C   UNL     1      38.563  -5.023  27.514  0.00  0.00    -0.046 A 
ATOM     18  C   UNL     1      37.488  -4.900  28.403  0.00  0.00    -0.019 A 
ATOM     19  C   UNL     1      36.392  -4.116  28.053  0.00  0.00    +0.117 A 
ATOM     20  C   UNL     1      36.364  -3.428  26.846  0.00  0.00    -0.019 A 
ATOM     21  C   UNL     1      37.434  -3.554  25.957  0.00  0.00    -0.046 A 
BRANCH  19  22
ATOM     22  O   UNL     1      35.314  -3.992  28.877  0.00  0.00    -0.507 OA
ATOM     23  H   UNL     1      34.458  -3.872  28.513  0.00  0.00    +0.000 HD
ENDBRANCH  19  22
ENDBRANCH  13  16
ENDBRANCH  11  12
ENDBRANCH   9  10
BRANCH   7  24
ATOM     24  C   UNL     1      44.298  -4.257  19.395  0.00  0.00    +0.048 C 
BRANCH  24  25
ATOM     25  C   UNL     1      44.211  -2.760  19.202  0.00  0.00    -0.028 A 
ATOM     26  C   UNL     1      43.503  -2.226  18.116  0.00  0.00    -0.056 A 
ATOM     27  C   UNL     1      43.603  -0.868  17.805  0.00  0.00    -0.047 A 
ATOM     28  C   UNL     1      44.376  -0.030  18.605  0.00  0.00    +0.018 A 
ATOM     29  C   UNL     1      44.982  -0.520  19.759  0.00  0.00    -0.047 A 
ATOM     30  C   UNL     1      44.897  -1.882  20.058  0.00  0.00    -0.056 A 
ATOM     31 BR   UNL     1      44.676   1.758  18.071  0.00  0.00    -0.050 Br
ENDBRANCH  24  25
ENDBRANCH   7  24
TORSDOF 6
ENDMDL
MODEL 3
REMARK VINA RESULT:    -9.059      2.579      5.014
REMARK INTER + INTRA:         -12.600
REMARK INTER:                 -12.444
REMARK INTRA:                  -0.156
REMARK UNBOUND:                -0.628
REMARK  Name = 24a.sdf
REMARK  6 active torsions:
REMARK  status: ('A' for Active; 'I' for Inactive)
REMARK    1  A    between atoms: N_7  and  C_10
REMARK    2  A    between atoms: C_9  and  C_18
REMARK    3  A    between atoms: C_10  and  C_11
REMARK    4  A    between atoms: N_19  and  N_20
REMARK    5  A    between atoms: C_21  and  C_23
REMARK    6  A    between atoms: C_26  and  O_29
REMARK                            x       y       z     vdW  Elec       q    Type
REMARK                         _______ _______ _______ _____ _____    ______ ____
ROOT
ATOM      1  C   UNL     1      45.366  -1.746  18.393  0.00  0.00    -0.061 A 
ATOM      2  C   UNL     1      45.443  -2.762  17.453  0.00  0.00    -0.060 A 
ATOM      3  C   UNL     1      44.570  -3.862  17.498  0.00  0.00    -0.038 A 
ATOM      4  C   UNL     1      43.630  -3.936  18.553  0.00  0.00    +0.050 A 
ATOM      5  C   UNL     1      43.502  -2.885  19.472  0.00  0.00    +0.009 A 
ATOM      6  C   UNL     1      44.384  -1.781  19.385  0.00  0.00    -0.052 A 
ATOM      7  N   UNL     1      42.732  -4.921  18.927  0.00  0.00    -0.342 N 
ATOM      8  C   UNL     1      41.980  -4.463  19.988  0.00  0.00    +0.015 A 
ATOM      9  C   UNL     1      42.408  -3.198  20.338  0.00  0.00    +0.020 A 
ENDROOT
BRANCH   9  10
ATOM     10  C   UNL     1      41.846  -2.363  21.384  0.00  0.00    +0.055 C 
ATOM     11  N   UNL     1      42.444  -2.262  22.527  0.00  0.00    -0.187 NA
BRANCH  11  12
ATOM     12  N   UNL     1      41.828  -1.473  23.460  0.00  0.00    -0.203 N 
ATOM     13  C   UNL     1      41.257  -2.056  24.586  0.00  0.00    +0.263 C 
ATOM     14  O   UNL     1      41.265  -3.263  24.831  0.00  0.00    -0.268 OA
ATOM     15  H   UNL     1      41.790  -0.497  23.334  0.00  0.00    +0.000 HD
BRANCH  13  16
ATOM     16  C   UNL     1      40.629  -1.131  25.570  0.00  0.00    +0.039 A 
ATOM     17  C   UNL     1      40.737   0.263  25.469  0.00  0.00    -0.046 A 
ATOM     18  C   UNL     1      40.151   1.088  26.436  0.00  0.00    -0.019 A 
ATOM     19  C   UNL     1      39.450   0.515  27.495  0.00  0.00    +0.117 A 
ATOM     20  C   UNL     1      39.298  -0.863  27.587  0.00  0.00    -0.019 A 
ATOM     21  C   UNL     1      39.886  -1.686  26.623  0.00  0.00    -0.046 A 
BRANCH  19  22
ATOM     22  O   UNL     1      38.889   1.280  28.474  0.00  0.00    -0.507 OA
ATOM     23  H   UNL     1      38.041   1.657  28.345  0.00  0.00    +0.000 HD
ENDBRANCH  19  22
ENDBRANCH  13  16
ENDBRANCH  11  12
ENDBRANCH   9  10
BRANCH   7  24
ATOM     24  C   UNL     1      42.639  -6.296  18.424  0.00  0.00    +0.048 C 
BRANCH  24  25
ATOM     25  C   UNL     1      41.399  -7.012  18.910  0.00  0.00    -0.028 A 
ATOM     26  C   UNL     1      40.425  -7.441  17.997  0.00  0.00    -0.056 A 
ATOM     27  C   UNL     1      39.185  -7.899  18.448  0.00  0.00    -0.047 A 
ATOM     28  C   UNL     1      38.929  -7.971  19.815  0.00  0.00    +0.018 A 
ATOM     29  C   UNL     1      39.930  -7.670  20.735  0.00  0.00    -0.047 A 
ATOM     30  C   UNL     1      41.164  -7.194  20.283  0.00  0.00    -0.056 A 
ATOM     31 BR   UNL     1      37.190  -8.394  20.421  0.00  0.00    -0.050 Br
ENDBRANCH  24  25
ENDBRANCH   7  24
TORSDOF 6
ENDMDL
