MODEL 1
REMARK VINA RESULT:    -9.671      0.000      0.000
REMARK INTER + INTRA:         -13.344
REMARK INTER:                 -12.781
REMARK INTRA:                  -0.564
REMARK UNBOUND:                -0.564
REMARK  Name = 24c.sdf
REMARK  6 active torsions:
REMARK  status: ('A' for Active; 'I' for Inactive)
REMARK    1  A    between atoms: N_7  and  C_10
REMARK    2  A    between atoms: C_9  and  C_18
REMARK    3  A    between atoms: C_10  and  C_11
REMARK    4  A    between atoms: N_19  and  N_20
REMARK    5  A    between atoms: C_21  and  C_23
REMARK    6  A    between atoms: C_26  and  O_29
REMARK                            x       y       z     vdW  Elec       q    Type
REMARK                         _______ _______ _______ _____ _____    ______ ____
ROOT
ATOM      1  C   UNL     1      37.441  -7.796  20.512  0.00  0.00    -0.061 A 
ATOM      2  C   UNL     1      38.158  -8.360  19.464  0.00  0.00    -0.060 A 
ATOM      3  C   UNL     1      39.391  -7.830  19.071  0.00  0.00    -0.038 A 
ATOM      4  C   UNL     1      39.893  -6.716  19.766  0.00  0.00    +0.050 A 
ATOM      5  C   UNL     1      39.211  -6.161  20.855  0.00  0.00    +0.009 A 
ATOM      6  C   UNL     1      37.959  -6.706  21.218  0.00  0.00    -0.052 A 
ATOM      7  N   UNL     1      41.037  -5.958  19.581  0.00  0.00    -0.342 N 
ATOM      8  C   UNL     1      41.126  -5.006  20.563  0.00  0.00    +0.015 A 
ATOM      9  C   UNL     1      40.016  -5.104  21.381  0.00  0.00    +0.020 A 
ENDROOT
BRANCH   9  10
ATOM     10  C   UNL     1      39.740  -4.285  22.546  0.00  0.00    +0.055 C 
ATOM     11  N   UNL     1      39.918  -3.007  22.491  0.00  0.00    -0.187 NA
BRANCH  11  12
ATOM     12  N   UNL     1      39.638  -2.316  23.638  0.00  0.00    -0.203 N 
ATOM     13  C   UNL     1      40.645  -1.604  24.270  0.00  0.00    +0.263 C 
ATOM     14  O   UNL     1      41.806  -1.520  23.885  0.00  0.00    -0.268 OA
ATOM     15  H   UNL     1      38.727  -2.325  24.012  0.00  0.00    +0.000 HD
BRANCH  13  16
ATOM     16  C   UNL     1      40.238  -0.861  25.501  0.00  0.00    +0.039 A 
ATOM     17  C   UNL     1      39.636  -1.497  26.600  0.00  0.00    -0.046 A 
ATOM     18  C   UNL     1      39.261  -0.751  27.723  0.00  0.00    -0.019 A 
ATOM     19  C   UNL     1      39.500   0.620  27.749  0.00  0.00    +0.117 A 
ATOM     20  C   UNL     1      40.122   1.255  26.681  0.00  0.00    -0.019 A 
ATOM     21  C   UNL     1      40.495   0.514  25.558  0.00  0.00    -0.046 A 
BRANCH  19  22
ATOM     22  O   UNL     1      39.142   1.386  28.818  0.00  0.00    -0.507 OA
ATOM     23  H   UNL     1      38.296   1.279  29.208  0.00  0.00    +0.000 HD
ENDBRANCH  19  22
ENDBRANCH  13  16
ENDBRANCH  11  12
ENDBRANCH   9  10
BRANCH   7  24
ATOM     24  C   UNL     1      41.971  -6.060  18.461  0.00  0.00    +0.048 C 
BRANCH  24  25
ATOM     25  C   UNL     1      42.561  -4.719  18.103  0.00  0.00    -0.028 A 
ATOM     26  C   UNL     1      43.951  -4.531  18.089  0.00  0.00    -0.055 A 
ATOM     27  C   UNL     1      44.494  -3.265  17.861  0.00  0.00    -0.043 A 
ATOM     28  C   UNL     1      43.650  -2.180  17.631  0.00  0.00    +0.041 A 
ATOM     29  C   UNL     1      42.270  -2.359  17.591  0.00  0.00    -0.043 A 
ATOM     30  C   UNL     1      41.727  -3.624  17.825  0.00  0.00    -0.055 A 
ATOM     31 CL   UNL     1      44.318  -0.609  17.419  0.00  0.00    -0.084 Cl
ENDBRANCH  24  25
ENDBRANCH   7  24
TORSDOF 6
ENDMDL
MODEL 2
REMARK VINA RESULT:    -9.434      2.971      3.580
REMARK INTER + INTRA:         -13.032
REMARK INTER:                 -12.047
REMARK INTRA:                  -0.984
REMARK UNBOUND:                -0.564
REMARK  Name = 24c.sdf
REMARK  6 active torsions:
REMARK  status: ('A' for Active; 'I' for Inactive)
REMARK    1  A    between atoms: N_7  and  C_10
REMARK    2  A    between atoms: C_9  and  C_18
REMARK    3  A    between atoms: C_10  and  C_11
REMARK    4  A    between atoms: N_19  and  N_20
REMARK    5  A    between atoms: C_21  and  C_23
REMARK    6  A    between atoms: C_26  and  O_29
REMARK                            x       y       z     vdW  Elec       q    Type
REMARK                         _______ _______ _______ _____ _____    ______ ____
ROOT
ATOM      1  C   UNL     1      40.450  -7.029  18.072  0.00  0.00    -0.061 A 
ATOM      2  C   UNL     1      41.689  -6.925  17.452  0.00  0.00    -0.060 A 
ATOM      3  C   UNL     1      42.714  -6.161  18.019  0.00  0.00    -0.038 A 
ATOM      4  C   UNL     1      42.464  -5.505  19.237  0.00  0.00    +0.050 A 
ATOM      5  C   UNL     1      41.240  -5.635  19.903  0.00  0.00    +0.009 A 
ATOM      6  C   UNL     1      40.217  -6.398  19.298  0.00  0.00    -0.052 A 
ATOM      7  N   UNL     1      43.249  -4.657  20.001  0.00  0.00    -0.342 N 
ATOM      8  C   UNL     1      42.584  -4.322  21.152  0.00  0.00    +0.015 A 
ATOM      9  C   UNL     1      41.336  -4.916  21.135  0.00  0.00    +0.020 A 
ENDROOT
BRANCH   9  10
ATOM     10  C   UNL     1      40.331  -4.820  22.177  0.00  0.00    +0.055 C 
ATOM     11  N   UNL     1      40.423  -3.897  23.077  0.00  0.00    -0.187 NA
BRANCH  11  12
ATOM     12  N   UNL     1      39.435  -3.886  24.023  0.00  0.00    -0.203 N 
ATOM     13  C   UNL     1      39.689  -4.408  25.282  0.00  0.00    +0.263 C 
ATOM     14  O   UNL     1      40.755  -4.890  25.651  0.00  0.00    -0.268 OA
ATOM     15  H   UNL     1      38.550  -3.511  23.810  0.00  0.00    +0.000 HD
BRANCH  13  16
ATOM     16  C   UNL     1      38.558  -4.330  26.254  0.00  0.00    +0.039 A 
ATOM     17  C   UNL     1      38.573  -5.010  27.484  0.00  0.00    -0.046 A 
ATOM     18  C   UNL     1      37.479  -4.913  28.353  0.00  0.00    -0.019 A 
ATOM     19  C   UNL     1      36.386  -4.129  27.996  0.00  0.00    +0.117 A 
ATOM     20  C   UNL     1      36.372  -3.428  26.798  0.00  0.00    -0.019 A 
ATOM     21  C   UNL     1      37.459  -3.524  25.927  0.00  0.00    -0.046 A 
BRANCH  19  22
ATOM     22  O   UNL     1      35.296  -4.016  28.808  0.00  0.00    -0.507 OA
ATOM     23  H   UNL     1      35.027  -3.173  29.116  0.00  0.00    +0.000 HD
ENDBRANCH  19  22
ENDBRANCH  13  16
ENDBRANCH  11  12
ENDBRANCH   9  10
BRANCH   7  24
ATOM     24  C   UNL     1      44.544  -4.099  19.619  0.00  0.00    +0.048 C 
BRANCH  24  25
ATOM     25  C   UNL     1      44.437  -2.640  19.250  0.00  0.00    -0.028 A 
ATOM     26  C   UNL     1      44.986  -1.652  20.079  0.00  0.00    -0.055 A 
ATOM     27  C   UNL     1      44.796  -0.298  19.793  0.00  0.00    -0.043 A 
ATOM     28  C   UNL     1      44.066   0.075  18.666  0.00  0.00    +0.041 A 
ATOM     29  C   UNL     1      43.557  -0.893  17.804  0.00  0.00    -0.043 A 
ATOM     30  C   UNL     1      43.743  -2.247  18.094  0.00  0.00    -0.055 A 
ATOM     31 CL   UNL     1      43.774   1.741  18.352  0.00  0.00    -0.084 Cl
ENDBRANCH  24  25
ENDBRANCH   7  24
TORSDOF 6
ENDMDL
MODEL 3
REMARK VINA RESULT:    -9.430      2.525      4.935
REMARK INTER + INTRA:         -13.026
REMARK INTER:                 -12.433
REMARK INTRA:                  -0.593
REMARK UNBOUND:                -0.564
REMARK  Name = 24c.sdf
REMARK  6 active torsions:
REMARK  status: ('A' for Active; 'I' for Inactive)
REMARK    1  A    between atoms: N_7  and  C_10
REMARK    2  A    between atoms: C_9  and  C_18
REMARK    3  A    between atoms: C_10  and  C_11
REMARK    4  A    between atoms: N_19  and  N_20
REMARK    5  A    between atoms: C_21  and  C_23
REMARK    6  A    between atoms: C_26  and  O_29
REMARK                            x       y       z     vdW  Elec       q    Type
REMARK                         _______ _______ _______ _____ _____    ______ ____
ROOT
ATOM      1  C   UNL     1      44.953  -1.925  18.183  0.00  0.00    -0.061 A 
ATOM      2  C   UNL     1      44.988  -3.092  17.429  0.00  0.00    -0.060 A 
ATOM      3  C   UNL     1      44.295  -4.234  17.842  0.00  0.00    -0.038 A 
ATOM      4  C   UNL     1      43.554  -4.173  19.034  0.00  0.00    +0.050 A 
ATOM      5  C   UNL     1      43.466  -2.994  19.784  0.00  0.00    +0.009 A 
ATOM      6  C   UNL     1      44.191  -1.861  19.353  0.00  0.00    -0.052 A 
ATOM      7  N   UNL     1      42.819  -5.133  19.709  0.00  0.00    -0.342 N 
ATOM      8  C   UNL     1      42.216  -4.571  20.804  0.00  0.00    +0.015 A 
ATOM      9  C   UNL     1      42.584  -3.241  20.883  0.00  0.00    +0.020 A 
ENDROOT
BRANCH   9  10
ATOM     10  C   UNL     1      42.148  -2.293  21.890  0.00  0.00    +0.055 C 
ATOM     11  N   UNL     1      41.137  -2.575  22.644  0.00  0.00    -0.187 NA
BRANCH  11  12
ATOM     12  N   UNL     1      40.794  -1.620  23.561  0.00  0.00    -0.203 N 
ATOM     13  C   UNL     1      40.660  -1.971  24.896  0.00  0.00    +0.263 C 
ATOM     14  O   UNL     1      40.835  -3.094  25.356  0.00  0.00    -0.268 OA
ATOM     15  H   UNL     1      40.641  -0.690  23.275  0.00  0.00    +0.000 HD
BRANCH  13  16
ATOM     16  C   UNL     1      40.307  -0.857  25.826  0.00  0.00    +0.039 A 
ATOM     17  C   UNL     1      39.755  -1.084  27.098  0.00  0.00    -0.046 A 
ATOM     18  C   UNL     1      39.429  -0.002  27.924  0.00  0.00    -0.019 A 
ATOM     19  C   UNL     1      39.666   1.297  27.482  0.00  0.00    +0.117 A 
ATOM     20  C   UNL     1      40.239   1.533  26.239  0.00  0.00    -0.019 A 
ATOM     21  C   UNL     1      40.563   0.456  25.411  0.00  0.00    -0.046 A 
BRANCH  19  22
ATOM     22  O   UNL     1      39.354   2.378  28.251  0.00  0.00    -0.507 OA
ATOM     23  H   UNL     1      39.809   3.188  28.127  0.00  0.00    +0.000 HD
ENDBRANCH  19  22
ENDBRANCH  13  16
ENDBRANCH  11  12
ENDBRANCH   9  10
BRANCH   7  24
ATOM     24  C   UNL     1      42.761  -6.559  19.391  0.00  0.00    +0.048 C 
BRANCH  24  25
ATOM     25  C   UNL     1      41.374  -7.118  19.586  0.00  0.00    -0.028 A 
ATOM     26  C   UNL     1      40.471  -7.177  18.514  0.00  0.00    -0.055 A 
ATOM     27  C   UNL     1      39.154  -7.596  18.717  0.00  0.00    -0.043 A 
ATOM     28  C   UNL     1      38.736  -7.972  19.991  0.00  0.00    +0.041 A 
ATOM     29  C   UNL     1      39.633  -7.967  21.057  0.00  0.00    -0.043 A 
ATOM     30  C   UNL     1      40.948  -7.544  20.855  0.00  0.00    -0.055 A 
ATOM     31 CL   UNL     1      37.096  -8.422  20.253  0.00  0.00    -0.084 Cl
ENDBRANCH  24  25
ENDBRANCH   7  24
TORSDOF 6
ENDMDL
