MODEL 1
REMARK VINA RESULT:    -9.803      0.000      0.000
REMARK INTER + INTRA:         -14.066
REMARK INTER:                 -13.242
REMARK INTRA:                  -0.824
REMARK UNBOUND:                -0.824
REMARK  Name = 25a.sdf
REMARK  7 active torsions:
REMARK  status: ('A' for Active; 'I' for Inactive)
REMARK    1  A    between atoms: N_7  and  C_10
REMARK    2  A    between atoms: C_9  and  C_18
REMARK    3  A    between atoms: C_10  and  C_11
REMARK    4  A    between atoms: N_19  and  N_20
REMARK    5  A    between atoms: C_21  and  C_23
REMARK    6  A    between atoms: C_25  and  O_29
REMARK    7  A    between atoms: C_27  and  O_30
REMARK                            x       y       z     vdW  Elec       q    Type
REMARK                         _______ _______ _______ _____ _____    ______ ____
ROOT
ATOM      1  C   UNL     1      39.895  -7.725  18.281  0.00  0.00    -0.061 A 
ATOM      2  C   UNL     1      40.983  -7.596  17.427  0.00  0.00    -0.060 A 
ATOM      3  C   UNL     1      42.100  -6.829  17.789  0.00  0.00    -0.038 A 
ATOM      4  C   UNL     1      42.089  -6.167  19.028  0.00  0.00    +0.050 A 
ATOM      5  C   UNL     1      41.027  -6.336  19.930  0.00  0.00    +0.009 A 
ATOM      6  C   UNL     1      39.917  -7.122  19.540  0.00  0.00    -0.052 A 
ATOM      7  N   UNL     1      42.977  -5.278  19.616  0.00  0.00    -0.342 N 
ATOM      8  C   UNL     1      42.546  -4.976  20.886  0.00  0.00    +0.015 A 
ATOM      9  C   UNL     1      41.351  -5.624  21.127  0.00  0.00    +0.020 A 
ENDROOT
BRANCH   9  10
ATOM     10  C   UNL     1      40.585  -5.573  22.360  0.00  0.00    +0.055 C 
ATOM     11  N   UNL     1      40.964  -4.795  23.322  0.00  0.00    -0.187 NA
BRANCH  11  12
ATOM     12  N   UNL     1      40.187  -4.812  24.453  0.00  0.00    -0.203 N 
ATOM     13  C   UNL     1      39.036  -4.027  24.504  0.00  0.00    +0.263 C 
ATOM     14  O   UNL     1      38.649  -3.271  23.626  0.00  0.00    -0.268 OA
ATOM     15  H   UNL     1      40.441  -5.372  25.222  0.00  0.00    +0.000 HD
BRANCH  13  16
ATOM     16  C   UNL     1      38.233  -4.135  25.761  0.00  0.00    +0.045 A 
ATOM     17  C   UNL     1      38.692  -4.966  26.800  0.00  0.00    -0.008 A 
ATOM     18  C   UNL     1      37.968  -5.034  27.990  0.00  0.00    +0.121 A 
ATOM     19  C   UNL     1      36.803  -4.289  28.164  0.00  0.00    +0.021 A 
ATOM     20  C   UNL     1      36.368  -3.466  27.133  0.00  0.00    +0.121 A 
ATOM     21  C   UNL     1      37.071  -3.382  25.937  0.00  0.00    -0.008 A 
BRANCH  18  22
ATOM     22  O   UNL     1      38.368  -5.812  29.038  0.00  0.00    -0.507 OA
ATOM     23  H   UNL     1      38.288  -5.491  29.915  0.00  0.00    +0.000 HD
ENDBRANCH  18  22
BRANCH  20  24
ATOM     24  O   UNL     1      35.247  -2.699  27.251  0.00  0.00    -0.507 OA
ATOM     25  H   UNL     1      35.184  -1.887  26.788  0.00  0.00    +0.000 HD
ENDBRANCH  20  24
ENDBRANCH  13  16
ENDBRANCH  11  12
ENDBRANCH   9  10
BRANCH   7  26
ATOM     26  C   UNL     1      44.115  -4.604  18.978  0.00  0.00    +0.048 C 
BRANCH  26  27
ATOM     27  C   UNL     1      43.948  -3.104  18.945  0.00  0.00    -0.028 A 
ATOM     28  C   UNL     1      43.203  -2.499  17.922  0.00  0.00    -0.056 A 
ATOM     29  C   UNL     1      43.215  -1.113  17.762  0.00  0.00    -0.047 A 
ATOM     30  C   UNL     1      43.943  -0.321  18.646  0.00  0.00    +0.018 A 
ATOM     31  C   UNL     1      44.591  -0.896  19.738  0.00  0.00    -0.047 A 
ATOM     32  C   UNL     1      44.591  -2.286  19.888  0.00  0.00    -0.056 A 
ATOM     33 BR   UNL     1      44.114   1.533  18.321  0.00  0.00    -0.050 Br
ENDBRANCH  26  27
ENDBRANCH   7  26
TORSDOF 7
ENDMDL
MODEL 2
REMARK VINA RESULT:    -9.756      0.834      1.706
REMARK INTER + INTRA:         -14.002
REMARK INTER:                 -13.085
REMARK INTRA:                  -0.917
REMARK UNBOUND:                -0.824
REMARK  Name = 25a.sdf
REMARK  7 active torsions:
REMARK  status: ('A' for Active; 'I' for Inactive)
REMARK    1  A    between atoms: N_7  and  C_10
REMARK    2  A    between atoms: C_9  and  C_18
REMARK    3  A    between atoms: C_10  and  C_11
REMARK    4  A    between atoms: N_19  and  N_20
REMARK    5  A    between atoms: C_21  and  C_23
REMARK    6  A    between atoms: C_25  and  O_29
REMARK    7  A    between atoms: C_27  and  O_30
REMARK                            x       y       z     vdW  Elec       q    Type
REMARK                         _______ _______ _______ _____ _____    ______ ____
ROOT
ATOM      1  C   UNL     1      40.157  -7.300  18.105  0.00  0.00    -0.061 A 
ATOM      2  C   UNL     1      41.374  -7.224  17.441  0.00  0.00    -0.060 A 
ATOM      3  C   UNL     1      42.443  -6.487  17.971  0.00  0.00    -0.038 A 
ATOM      4  C   UNL     1      42.251  -5.799  19.181  0.00  0.00    +0.050 A 
ATOM      5  C   UNL     1      41.050  -5.914  19.898  0.00  0.00    +0.009 A 
ATOM      6  C   UNL     1      39.992  -6.672  19.341  0.00  0.00    -0.052 A 
ATOM      7  N   UNL     1      43.061  -4.927  19.894  0.00  0.00    -0.342 N 
ATOM      8  C   UNL     1      42.438  -4.584  21.070  0.00  0.00    +0.015 A 
ATOM      9  C   UNL     1      41.198  -5.189  21.121  0.00  0.00    +0.020 A 
ENDROOT
BRANCH   9  10
ATOM     10  C   UNL     1      40.241  -5.086  22.209  0.00  0.00    +0.055 C 
ATOM     11  N   UNL     1      40.202  -4.014  22.934  0.00  0.00    -0.187 NA
BRANCH  11  12
ATOM     12  N   UNL     1      39.273  -4.003  23.943  0.00  0.00    -0.203 N 
ATOM     13  C   UNL     1      39.645  -4.423  25.220  0.00  0.00    +0.263 C 
ATOM     14  O   UNL     1      40.746  -4.847  25.538  0.00  0.00    -0.268 OA
ATOM     15  H   UNL     1      38.352  -3.702  23.768  0.00  0.00    +0.000 HD
BRANCH  13  16
ATOM     16  C   UNL     1      38.578  -4.343  26.264  0.00  0.00    +0.045 A 
ATOM     17  C   UNL     1      37.463  -3.514  26.045  0.00  0.00    -0.008 A 
ATOM     18  C   UNL     1      36.445  -3.473  26.998  0.00  0.00    +0.121 A 
ATOM     19  C   UNL     1      36.517  -4.243  28.158  0.00  0.00    +0.021 A 
ATOM     20  C   UNL     1      37.620  -5.064  28.355  0.00  0.00    +0.121 A 
ATOM     21  C   UNL     1      38.647  -5.122  27.421  0.00  0.00    -0.008 A 
BRANCH  18  22
ATOM     22  O   UNL     1      35.334  -2.698  26.838  0.00  0.00    -0.507 OA
ATOM     23  H   UNL     1      34.600  -3.026  26.356  0.00  0.00    +0.000 HD
ENDBRANCH  18  22
BRANCH  20  24
ATOM     24  O   UNL     1      37.737  -5.855  29.459  0.00  0.00    -0.507 OA
ATOM     25  H   UNL     1      38.050  -5.492  30.264  0.00  0.00    +0.000 HD
ENDBRANCH  20  24
ENDBRANCH  13  16
ENDBRANCH  11  12
ENDBRANCH   9  10
BRANCH   7  26
ATOM     26  C   UNL     1      44.313  -4.304  19.443  0.00  0.00    +0.048 C 
BRANCH  26  27
ATOM     27  C   UNL     1      44.174  -2.813  19.252  0.00  0.00    -0.028 A 
ATOM     28  C   UNL     1      43.504  -2.304  18.129  0.00  0.00    -0.056 A 
ATOM     29  C   UNL     1      43.551  -0.941  17.834  0.00  0.00    -0.047 A 
ATOM     30  C   UNL     1      44.236  -0.074  18.680  0.00  0.00    +0.018 A 
ATOM     31  C   UNL     1      44.805  -0.544  19.861  0.00  0.00    -0.047 A 
ATOM     32  C   UNL     1      44.772  -1.912  20.147  0.00  0.00    -0.056 A 
ATOM     33 BR   UNL     1      44.459   1.736  18.184  0.00  0.00    -0.050 Br
ENDBRANCH  26  27
ENDBRANCH   7  26
TORSDOF 7
ENDMDL
MODEL 3
REMARK VINA RESULT:    -9.507      1.499      1.768
REMARK INTER + INTRA:         -13.665
REMARK INTER:                 -13.051
REMARK INTRA:                  -0.615
REMARK UNBOUND:                -0.824
REMARK  Name = 25a.sdf
REMARK  7 active torsions:
REMARK  status: ('A' for Active; 'I' for Inactive)
REMARK    1  A    between atoms: N_7  and  C_10
REMARK    2  A    between atoms: C_9  and  C_18
REMARK    3  A    between atoms: C_10  and  C_11
REMARK    4  A    between atoms: N_19  and  N_20
REMARK    5  A    between atoms: C_21  and  C_23
REMARK    6  A    between atoms: C_25  and  O_29
REMARK    7  A    between atoms: C_27  and  O_30
REMARK                            x       y       z     vdW  Elec       q    Type
REMARK                         _______ _______ _______ _____ _____    ______ ____
ROOT
ATOM      1  C   UNL     1      40.111  -8.155  18.516  0.00  0.00    -0.061 A 
ATOM      2  C   UNL     1      40.927  -7.654  17.510  0.00  0.00    -0.060 A 
ATOM      3  C   UNL     1      41.404  -6.336  17.553  0.00  0.00    -0.038 A 
ATOM      4  C   UNL     1      41.018  -5.515  18.627  0.00  0.00    +0.050 A 
ATOM      5  C   UNL     1      40.246  -6.022  19.684  0.00  0.00    +0.009 A 
ATOM      6  C   UNL     1      39.786  -7.358  19.616  0.00  0.00    -0.052 A 
ATOM      7  N   UNL     1      41.237  -4.173  18.898  0.00  0.00    -0.342 N 
ATOM      8  C   UNL     1      40.714  -3.865  20.131  0.00  0.00    +0.015 A 
ATOM      9  C   UNL     1      40.107  -4.986  20.660  0.00  0.00    +0.020 A 
ENDROOT
BRANCH   9  10
ATOM     10  C   UNL     1      39.452  -5.073  21.953  0.00  0.00    +0.055 C 
ATOM     11  N   UNL     1      38.553  -4.200  22.280  0.00  0.00    -0.187 NA
BRANCH  11  12
ATOM     12  N   UNL     1      37.989  -4.352  23.522  0.00  0.00    -0.203 N 
ATOM     13  C   UNL     1      38.723  -4.004  24.654  0.00  0.00    +0.263 C 
ATOM     14  O   UNL     1      39.873  -3.591  24.659  0.00  0.00    -0.268 OA
ATOM     15  H   UNL     1      37.074  -4.704  23.612  0.00  0.00    +0.000 HD
BRANCH  13  16
ATOM     16  C   UNL     1      38.016  -4.169  25.961  0.00  0.00    +0.045 A 
ATOM     17  C   UNL     1      38.498  -5.111  26.889  0.00  0.00    -0.008 A 
ATOM     18  C   UNL     1      37.867  -5.235  28.126  0.00  0.00    +0.121 A 
ATOM     19  C   UNL     1      36.773  -4.437  28.457  0.00  0.00    +0.021 A 
ATOM     20  C   UNL     1      36.314  -3.505  27.534  0.00  0.00    +0.121 A 
ATOM     21  C   UNL     1      36.925  -3.363  26.293  0.00  0.00    -0.008 A 
BRANCH  18  22
ATOM     22  O   UNL     1      38.295  -6.121  29.072  0.00  0.00    -0.507 OA
ATOM     23  H   UNL     1      37.881  -6.958  29.148  0.00  0.00    +0.000 HD
ENDBRANCH  18  22
BRANCH  20  24
ATOM     24  O   UNL     1      35.261  -2.684  27.806  0.00  0.00    -0.507 OA
ATOM     25  H   UNL     1      35.410  -1.842  28.190  0.00  0.00    +0.000 HD
ENDBRANCH  20  24
ENDBRANCH  13  16
ENDBRANCH  11  12
ENDBRANCH   9  10
BRANCH   7  26
ATOM     26  C   UNL     1      41.784  -3.158  17.987  0.00  0.00    +0.048 C 
BRANCH  26  27
ATOM     27  C   UNL     1      43.225  -2.831  18.293  0.00  0.00    -0.028 A 
ATOM     28  C   UNL     1      43.542  -1.940  19.329  0.00  0.00    -0.056 A 
ATOM     29  C   UNL     1      44.847  -1.471  19.485  0.00  0.00    -0.047 A 
ATOM     30  C   UNL     1      45.849  -1.917  18.629  0.00  0.00    +0.018 A 
ATOM     31  C   UNL     1      45.576  -2.891  17.671  0.00  0.00    -0.047 A 
ATOM     32  C   UNL     1      44.266  -3.349  17.505  0.00  0.00    -0.056 A 
ATOM     33 BR   UNL     1      47.572  -1.143  18.718  0.00  0.00    -0.050 Br
ENDBRANCH  26  27
ENDBRANCH   7  26
TORSDOF 7
ENDMDL
