MODEL 1
REMARK VINA RESULT:    -9.725      0.000      0.000
REMARK INTER + INTRA:         -14.101
REMARK INTER:                 -13.137
REMARK INTRA:                  -0.964
REMARK UNBOUND:                -0.964
REMARK  Name = 25c.sdf
REMARK  7 active torsions:
REMARK  status: ('A' for Active; 'I' for Inactive)
REMARK    1  A    between atoms: N_7  and  C_10
REMARK    2  A    between atoms: C_9  and  C_18
REMARK    3  A    between atoms: C_10  and  C_11
REMARK    4  A    between atoms: N_19  and  N_20
REMARK    5  A    between atoms: C_21  and  C_23
REMARK    6  A    between atoms: C_25  and  O_29
REMARK    7  A    between atoms: C_27  and  O_30
REMARK                            x       y       z     vdW  Elec       q    Type
REMARK                         _______ _______ _______ _____ _____    ______ ____
ROOT
ATOM      1  C   UNL     1      40.675  -7.037  17.984  0.00  0.00    -0.061 A 
ATOM      2  C   UNL     1      41.896  -6.856  17.345  0.00  0.00    -0.060 A 
ATOM      3  C   UNL     1      42.925  -6.117  17.945  0.00  0.00    -0.038 A 
ATOM      4  C   UNL     1      42.689  -5.529  19.201  0.00  0.00    +0.050 A 
ATOM      5  C   UNL     1      41.484  -5.757  19.890  0.00  0.00    +0.009 A 
ATOM      6  C   UNL     1      40.469  -6.517  19.263  0.00  0.00    -0.052 A 
ATOM      7  N   UNL     1      43.448  -4.678  19.990  0.00  0.00    -0.342 N 
ATOM      8  C   UNL     1      42.793  -4.455  21.179  0.00  0.00    +0.015 A 
ATOM      9  C   UNL     1      41.586  -5.127  21.167  0.00  0.00    +0.020 A 
ENDROOT
BRANCH   9  10
ATOM     10  C   UNL     1      40.620  -5.164  22.246  0.00  0.00    +0.055 C 
ATOM     11  N   UNL     1      40.986  -4.865  23.450  0.00  0.00    -0.187 NA
BRANCH  11  12
ATOM     12  N   UNL     1      40.016  -4.931  24.420  0.00  0.00    -0.203 N 
ATOM     13  C   UNL     1      39.739  -3.807  25.196  0.00  0.00    +0.263 C 
ATOM     14  O   UNL     1      40.312  -2.724  25.116  0.00  0.00    -0.268 OA
ATOM     15  H   UNL     1      39.521  -5.768  24.568  0.00  0.00    +0.000 HD
BRANCH  13  16
ATOM     16  C   UNL     1      38.655  -3.960  26.209  0.00  0.00    +0.045 A 
ATOM     17  C   UNL     1      37.476  -3.202  26.100  0.00  0.00    -0.008 A 
ATOM     18  C   UNL     1      36.448  -3.396  27.026  0.00  0.00    +0.121 A 
ATOM     19  C   UNL     1      36.572  -4.325  28.051  0.00  0.00    +0.021 A 
ATOM     20  C   UNL     1      37.734  -5.076  28.150  0.00  0.00    +0.121 A 
ATOM     21  C   UNL     1      38.768  -4.905  27.234  0.00  0.00    -0.008 A 
BRANCH  18  22
ATOM     22  O   UNL     1      35.279  -2.694  26.961  0.00  0.00    -0.507 OA
ATOM     23  H   UNL     1      35.294  -1.774  26.785  0.00  0.00    +0.000 HD
ENDBRANCH  18  22
BRANCH  20  24
ATOM     24  O   UNL     1      37.922  -6.010  29.114  0.00  0.00    -0.507 OA
ATOM     25  H   UNL     1      37.361  -6.760  29.155  0.00  0.00    +0.000 HD
ENDBRANCH  20  24
ENDBRANCH  13  16
ENDBRANCH  11  12
ENDBRANCH   9  10
BRANCH   7  26
ATOM     26  C   UNL     1      44.676  -3.966  19.611  0.00  0.00    +0.048 C 
BRANCH  26  27
ATOM     27  C   UNL     1      44.426  -2.506  19.319  0.00  0.00    -0.028 A 
ATOM     28  C   UNL     1      43.630  -2.130  18.227  0.00  0.00    -0.055 A 
ATOM     29  C   UNL     1      43.572  -0.798  17.816  0.00  0.00    -0.043 A 
ATOM     30  C   UNL     1      44.276   0.175  18.522  0.00  0.00    +0.041 A 
ATOM     31  C   UNL     1      44.973  -0.163  19.679  0.00  0.00    -0.043 A 
ATOM     32  C   UNL     1      45.046  -1.501  20.079  0.00  0.00    -0.055 A 
ATOM     33 CL   UNL     1      44.332   1.788  17.925  0.00  0.00    -0.084 Cl
ENDBRANCH  26  27
ENDBRANCH   7  26
TORSDOF 7
ENDMDL
MODEL 2
REMARK VINA RESULT:    -9.610      1.854      2.148
REMARK INTER + INTRA:         -13.945
REMARK INTER:                 -13.171
REMARK INTRA:                  -0.774
REMARK UNBOUND:                -0.964
REMARK  Name = 25c.sdf
REMARK  7 active torsions:
REMARK  status: ('A' for Active; 'I' for Inactive)
REMARK    1  A    between atoms: N_7  and  C_10
REMARK    2  A    between atoms: C_9  and  C_18
REMARK    3  A    between atoms: C_10  and  C_11
REMARK    4  A    between atoms: N_19  and  N_20
REMARK    5  A    between atoms: C_21  and  C_23
REMARK    6  A    between atoms: C_25  and  O_29
REMARK    7  A    between atoms: C_27  and  O_30
REMARK                            x       y       z     vdW  Elec       q    Type
REMARK                         _______ _______ _______ _____ _____    ______ ____
ROOT
ATOM      1  C   UNL     1      40.178  -7.911  18.740  0.00  0.00    -0.061 A 
ATOM      2  C   UNL     1      40.778  -7.457  17.570  0.00  0.00    -0.060 A 
ATOM      3  C   UNL     1      41.245  -6.140  17.459  0.00  0.00    -0.038 A 
ATOM      4  C   UNL     1      41.067  -5.268  18.548  0.00  0.00    +0.050 A 
ATOM      5  C   UNL     1      40.522  -5.727  19.761  0.00  0.00    +0.009 A 
ATOM      6  C   UNL     1      40.071  -7.065  19.846  0.00  0.00    -0.052 A 
ATOM      7  N   UNL     1      41.321  -3.914  18.710  0.00  0.00    -0.342 N 
ATOM      8  C   UNL     1      41.044  -3.551  20.007  0.00  0.00    +0.015 A 
ATOM      9  C   UNL     1      40.571  -4.651  20.697  0.00  0.00    +0.020 A 
ENDROOT
BRANCH   9  10
ATOM     10  C   UNL     1      40.195  -4.683  22.096  0.00  0.00    +0.055 C 
ATOM     11  N   UNL     1      39.523  -3.703  22.606  0.00  0.00    -0.187 NA
BRANCH  11  12
ATOM     12  N   UNL     1      39.211  -3.802  23.940  0.00  0.00    -0.203 N 
ATOM     13  C   UNL     1      38.165  -4.628  24.345  0.00  0.00    +0.263 C 
ATOM     14  O   UNL     1      37.444  -5.287  23.599  0.00  0.00    -0.268 OA
ATOM     15  H   UNL     1      39.724  -3.291  24.606  0.00  0.00    +0.000 HD
BRANCH  13  16
ATOM     16  C   UNL     1      37.911  -4.694  25.813  0.00  0.00    +0.045 A 
ATOM     17  C   UNL     1      36.731  -4.149  26.350  0.00  0.00    -0.008 A 
ATOM     18  C   UNL     1      36.483  -4.267  27.719  0.00  0.00    +0.121 A 
ATOM     19  C   UNL     1      37.382  -4.914  28.558  0.00  0.00    +0.021 A 
ATOM     20  C   UNL     1      38.540  -5.458  28.022  0.00  0.00    +0.121 A 
ATOM     21  C   UNL     1      38.804  -5.359  26.659  0.00  0.00    -0.008 A 
BRANCH  18  22
ATOM     22  O   UNL     1      35.351  -3.764  28.291  0.00  0.00    -0.507 OA
ATOM     23  H   UNL     1      35.331  -3.581  29.210  0.00  0.00    +0.000 HD
ENDBRANCH  18  22
BRANCH  20  24
ATOM     24  O   UNL     1      39.455  -6.116  28.775  0.00  0.00    -0.507 OA
ATOM     25  H   UNL     1      39.278  -6.986  29.074  0.00  0.00    +0.000 HD
ENDBRANCH  20  24
ENDBRANCH  13  16
ENDBRANCH  11  12
ENDBRANCH   9  10
BRANCH   7  26
ATOM     26  C   UNL     1      41.671  -2.940  17.668  0.00  0.00    +0.048 C 
BRANCH  26  27
ATOM     27  C   UNL     1      43.131  -2.559  17.706  0.00  0.00    -0.028 A 
ATOM     28  C   UNL     1      43.508  -1.219  17.876  0.00  0.00    -0.055 A 
ATOM     29  C   UNL     1      44.835  -0.825  17.692  0.00  0.00    -0.043 A 
ATOM     30  C   UNL     1      45.802  -1.777  17.380  0.00  0.00    +0.041 A 
ATOM     31  C   UNL     1      45.467  -3.127  17.326  0.00  0.00    -0.043 A 
ATOM     32  C   UNL     1      44.135  -3.519  17.491  0.00  0.00    -0.055 A 
ATOM     33 CL   UNL     1      47.403  -1.274  16.999  0.00  0.00    -0.084 Cl
ENDBRANCH  26  27
ENDBRANCH   7  26
TORSDOF 7
ENDMDL
MODEL 3
REMARK VINA RESULT:    -8.955      4.772      7.903
REMARK INTER + INTRA:         -13.061
REMARK INTER:                 -12.072
REMARK INTRA:                  -0.989
REMARK UNBOUND:                -0.964
REMARK  Name = 25c.sdf
REMARK  7 active torsions:
REMARK  status: ('A' for Active; 'I' for Inactive)
REMARK    1  A    between atoms: N_7  and  C_10
REMARK    2  A    between atoms: C_9  and  C_18
REMARK    3  A    between atoms: C_10  and  C_11
REMARK    4  A    between atoms: N_19  and  N_20
REMARK    5  A    between atoms: C_21  and  C_23
REMARK    6  A    between atoms: C_25  and  O_29
REMARK    7  A    between atoms: C_27  and  O_30
REMARK                            x       y       z     vdW  Elec       q    Type
REMARK                         _______ _______ _______ _____ _____    ______ ____
ROOT
ATOM      1  C   UNL     1      39.294  -1.640  27.195  0.00  0.00    -0.061 A 
ATOM      2  C   UNL     1      39.843  -0.427  27.597  0.00  0.00    -0.060 A 
ATOM      3  C   UNL     1      40.606   0.350  26.715  0.00  0.00    -0.038 A 
ATOM      4  C   UNL     1      40.837  -0.136  25.415  0.00  0.00    +0.050 A 
ATOM      5  C   UNL     1      40.235  -1.327  24.972  0.00  0.00    +0.009 A 
ATOM      6  C   UNL     1      39.460  -2.084  25.882  0.00  0.00    -0.052 A 
ATOM      7  N   UNL     1      41.613   0.336  24.367  0.00  0.00    -0.342 N 
ATOM      8  C   UNL     1      41.431  -0.470  23.267  0.00  0.00    +0.015 A 
ATOM      9  C   UNL     1      40.565  -1.497  23.594  0.00  0.00    +0.020 A 
ENDROOT
BRANCH   9  10
ATOM     10  C   UNL     1      40.102  -2.538  22.699  0.00  0.00    +0.055 C 
ATOM     11  N   UNL     1      40.932  -3.110  21.890  0.00  0.00    -0.187 NA
BRANCH  11  12
ATOM     12  N   UNL     1      40.417  -4.081  21.067  0.00  0.00    -0.203 N 
ATOM     13  C   UNL     1      40.545  -5.423  21.419  0.00  0.00    +0.263 C 
ATOM     14  O   UNL     1      41.117  -5.849  22.420  0.00  0.00    -0.268 OA
ATOM     15  H   UNL     1      39.961  -3.831  20.232  0.00  0.00    +0.000 HD
BRANCH  13  16
ATOM     16  C   UNL     1      39.935  -6.410  20.481  0.00  0.00    +0.045 A 
ATOM     17  C   UNL     1      40.560  -6.695  19.255  0.00  0.00    -0.008 A 
ATOM     18  C   UNL     1      40.005  -7.660  18.411  0.00  0.00    +0.121 A 
ATOM     19  C   UNL     1      38.847  -8.342  18.765  0.00  0.00    +0.021 A 
ATOM     20  C   UNL     1      38.239  -8.063  19.981  0.00  0.00    +0.121 A 
ATOM     21  C   UNL     1      38.779  -7.111  20.840  0.00  0.00    -0.008 A 
BRANCH  18  22
ATOM     22  O   UNL     1      40.575  -7.983  17.214  0.00  0.00    -0.507 OA
ATOM     23  H   UNL     1      41.352  -8.506  17.190  0.00  0.00    +0.000 HD
ENDBRANCH  18  22
BRANCH  20  24
ATOM     24  O   UNL     1      37.117  -8.697  20.400  0.00  0.00    -0.507 OA
ATOM     25  H   UNL     1      36.291  -8.495  20.006  0.00  0.00    +0.000 HD
ENDBRANCH  20  24
ENDBRANCH  13  16
ENDBRANCH  11  12
ENDBRANCH   9  10
BRANCH   7  26
ATOM     26  C   UNL     1      42.610   1.413  24.409  0.00  0.00    +0.048 C 
BRANCH  26  27
ATOM     27  C   UNL     1      43.913   0.966  25.027  0.00  0.00    -0.028 A 
ATOM     28  C   UNL     1      44.172   1.207  26.384  0.00  0.00    -0.055 A 
ATOM     29  C   UNL     1      45.448   1.001  26.910  0.00  0.00    -0.043 A 
ATOM     30  C   UNL     1      46.463   0.509  26.094  0.00  0.00    +0.041 A 
ATOM     31  C   UNL     1      46.192   0.150  24.776  0.00  0.00    -0.043 A 
ATOM     32  C   UNL     1      44.919   0.375  24.243  0.00  0.00    -0.055 A 
ATOM     33 CL   UNL     1      48.070   0.403  26.700  0.00  0.00    -0.084 Cl
ENDBRANCH  26  27
ENDBRANCH   7  26
TORSDOF 7
ENDMDL
