MODEL 1
REMARK VINA RESULT:    -9.781      0.000      0.000
REMARK INTER + INTRA:         -14.057
REMARK INTER:                 -13.211
REMARK INTRA:                  -0.846
REMARK UNBOUND:                -0.846
REMARK  Name = 26c.sdf
REMARK  7 active torsions:
REMARK  status: ('A' for Active; 'I' for Inactive)
REMARK    1  A    between atoms: N_7  and  C_10
REMARK    2  A    between atoms: C_9  and  C_18
REMARK    3  A    between atoms: C_10  and  C_11
REMARK    4  A    between atoms: N_19  and  N_20
REMARK    5  A    between atoms: C_21  and  C_23
REMARK    6  A    between atoms: C_26  and  O_29
REMARK    7  A    between atoms: C_28  and  O_30
REMARK                            x       y       z     vdW  Elec       q    Type
REMARK                         _______ _______ _______ _____ _____    ______ ____
ROOT
ATOM      1  C   UNL     1      37.443  -7.723  20.530  0.00  0.00    -0.061 A 
ATOM      2  C   UNL     1      38.156  -8.330  19.503  0.00  0.00    -0.060 A 
ATOM      3  C   UNL     1      39.410  -7.847  19.113  0.00  0.00    -0.038 A 
ATOM      4  C   UNL     1      39.937  -6.729  19.785  0.00  0.00    +0.050 A 
ATOM      5  C   UNL     1      39.260  -6.139  20.862  0.00  0.00    +0.009 A 
ATOM      6  C   UNL     1      37.989  -6.641  21.225  0.00  0.00    -0.052 A 
ATOM      7  N   UNL     1      41.093  -5.996  19.586  0.00  0.00    -0.342 N 
ATOM      8  C   UNL     1      41.204  -5.036  20.558  0.00  0.00    +0.015 A 
ATOM      9  C   UNL     1      40.091  -5.095  21.373  0.00  0.00    +0.020 A 
ENDROOT
BRANCH   9  10
ATOM     10  C   UNL     1      39.843  -4.248  22.521  0.00  0.00    +0.055 C 
ATOM     11  N   UNL     1      39.867  -2.962  22.374  0.00  0.00    -0.187 NA
BRANCH  11  12
ATOM     12  N   UNL     1      39.630  -2.251  23.518  0.00  0.00    -0.203 N 
ATOM     13  C   UNL     1      40.653  -1.584  24.172  0.00  0.00    +0.267 C 
ATOM     14  O   UNL     1      41.826  -1.569  23.807  0.00  0.00    -0.268 OA
ATOM     15  H   UNL     1      38.717  -2.212  23.883  0.00  0.00    +0.000 HD
BRANCH  13  16
ATOM     16  C   UNL     1      40.254  -0.841  25.415  0.00  0.00    +0.080 A 
ATOM     17  C   UNL     1      40.509   0.541  25.455  0.00  0.00    -0.043 A 
ATOM     18  C   UNL     1      40.171   1.303  26.579  0.00  0.00    -0.019 A 
ATOM     19  C   UNL     1      39.574   0.681  27.668  0.00  0.00    +0.120 A 
ATOM     20  C   UNL     1      39.303  -0.682  27.651  0.00  0.00    +0.022 A 
ATOM     21  C   UNL     1      39.643  -1.443  26.528  0.00  0.00    +0.132 A 
BRANCH  19  22
ATOM     22  O   UNL     1      39.234   1.374  28.791  0.00  0.00    -0.507 OA
ATOM     23  H   UNL     1      39.893   1.829  29.278  0.00  0.00    +0.000 HD
ENDBRANCH  19  22
BRANCH  21  24
ATOM     24  O   UNL     1      39.370  -2.787  26.542  0.00  0.00    -0.506 OA
ATOM     25  H   UNL     1      39.874  -3.374  26.013  0.00  0.00    +0.000 HD
ENDBRANCH  21  24
ENDBRANCH  13  16
ENDBRANCH  11  12
ENDBRANCH   9  10
BRANCH   7  26
ATOM     26  C   UNL     1      42.013  -6.095  18.452  0.00  0.00    +0.048 C 
BRANCH  26  27
ATOM     27  C   UNL     1      42.572  -4.748  18.064  0.00  0.00    -0.028 A 
ATOM     28  C   UNL     1      43.958  -4.545  18.009  0.00  0.00    -0.055 A 
ATOM     29  C   UNL     1      44.479  -3.268  17.797  0.00  0.00    -0.043 A 
ATOM     30  C   UNL     1      43.616  -2.189  17.617  0.00  0.00    +0.041 A 
ATOM     31  C   UNL     1      42.239  -2.386  17.591  0.00  0.00    -0.043 A 
ATOM     32  C   UNL     1      41.717  -3.663  17.811  0.00  0.00    -0.055 A 
ATOM     33 CL   UNL     1      44.259  -0.601  17.461  0.00  0.00    -0.084 Cl
ENDBRANCH  26  27
ENDBRANCH   7  26
TORSDOF 7
ENDMDL
MODEL 2
REMARK VINA RESULT:    -9.698      3.041      3.690
REMARK INTER + INTRA:         -13.946
REMARK INTER:                 -12.809
REMARK INTRA:                  -1.136
REMARK UNBOUND:                -0.846
REMARK  Name = 26c.sdf
REMARK  7 active torsions:
REMARK  status: ('A' for Active; 'I' for Inactive)
REMARK    1  A    between atoms: N_7  and  C_10
REMARK    2  A    between atoms: C_9  and  C_18
REMARK    3  A    between atoms: C_10  and  C_11
REMARK    4  A    between atoms: N_19  and  N_20
REMARK    5  A    between atoms: C_21  and  C_23
REMARK    6  A    between atoms: C_26  and  O_29
REMARK    7  A    between atoms: C_28  and  O_30
REMARK                            x       y       z     vdW  Elec       q    Type
REMARK                         _______ _______ _______ _____ _____    ______ ____
ROOT
ATOM      1  C   UNL     1      40.312  -7.202  18.097  0.00  0.00    -0.061 A 
ATOM      2  C   UNL     1      41.544  -7.122  17.457  0.00  0.00    -0.060 A 
ATOM      3  C   UNL     1      42.573  -6.325  17.971  0.00  0.00    -0.038 A 
ATOM      4  C   UNL     1      42.335  -5.602  19.153  0.00  0.00    +0.050 A 
ATOM      5  C   UNL     1      41.119  -5.714  19.845  0.00  0.00    +0.009 A 
ATOM      6  C   UNL     1      40.095  -6.517  19.295  0.00  0.00    -0.052 A 
ATOM      7  N   UNL     1      43.112  -4.696  19.851  0.00  0.00    -0.342 N 
ATOM      8  C   UNL     1      42.464  -4.317  20.998  0.00  0.00    +0.015 A 
ATOM      9  C   UNL     1      41.227  -4.930  21.035  0.00  0.00    +0.020 A 
ENDROOT
BRANCH   9  10
ATOM     10  C   UNL     1      40.249  -4.789  22.093  0.00  0.00    +0.055 C 
ATOM     11  N   UNL     1      40.655  -4.682  23.319  0.00  0.00    -0.187 NA
BRANCH  11  12
ATOM     12  N   UNL     1      39.656  -4.562  24.243  0.00  0.00    -0.203 N 
ATOM     13  C   UNL     1      39.900  -4.760  25.593  0.00  0.00    +0.267 C 
ATOM     14  O   UNL     1      40.992  -5.054  26.071  0.00  0.00    -0.268 OA
ATOM     15  H   UNL     1      38.746  -4.331  23.946  0.00  0.00    +0.000 HD
BRANCH  13  16
ATOM     16  C   UNL     1      38.714  -4.595  26.499  0.00  0.00    +0.080 A 
ATOM     17  C   UNL     1      37.667  -3.767  26.056  0.00  0.00    -0.043 A 
ATOM     18  C   UNL     1      36.530  -3.560  26.844  0.00  0.00    -0.019 A 
ATOM     19  C   UNL     1      36.438  -4.183  28.082  0.00  0.00    +0.120 A 
ATOM     20  C   UNL     1      37.453  -5.013  28.540  0.00  0.00    +0.022 A 
ATOM     21  C   UNL     1      38.591  -5.219  27.752  0.00  0.00    +0.132 A 
BRANCH  19  22
ATOM     22  O   UNL     1      35.357  -4.006  28.894  0.00  0.00    -0.507 OA
ATOM     23  H   UNL     1      34.556  -4.457  28.714  0.00  0.00    +0.000 HD
ENDBRANCH  19  22
BRANCH  21  24
ATOM     24  O   UNL     1      39.580  -6.038  28.233  0.00  0.00    -0.506 OA
ATOM     25  H   UNL     1      39.381  -6.679  28.888  0.00  0.00    +0.000 HD
ENDBRANCH  21  24
ENDBRANCH  13  16
ENDBRANCH  11  12
ENDBRANCH   9  10
BRANCH   7  26
ATOM     26  C   UNL     1      44.371  -4.095  19.409  0.00  0.00    +0.048 C 
BRANCH  26  27
ATOM     27  C   UNL     1      44.232  -2.611  19.169  0.00  0.00    -0.028 A 
ATOM     28  C   UNL     1      43.483  -2.136  18.084  0.00  0.00    -0.055 A 
ATOM     29  C   UNL     1      43.473  -0.777  17.770  0.00  0.00    -0.043 A 
ATOM     30  C   UNL     1      44.195   0.120  18.554  0.00  0.00    +0.041 A 
ATOM     31  C   UNL     1      44.882  -0.324  19.681  0.00  0.00    -0.043 A 
ATOM     32  C   UNL     1      44.898  -1.687  19.990  0.00  0.00    -0.055 A 
ATOM     33 CL   UNL     1      44.267   1.780  18.105  0.00  0.00    -0.084 Cl
ENDBRANCH  26  27
ENDBRANCH   7  26
TORSDOF 7
ENDMDL
MODEL 3
REMARK VINA RESULT:    -9.555      2.457      4.815
REMARK INTER + INTRA:         -13.753
REMARK INTER:                 -12.946
REMARK INTRA:                  -0.807
REMARK UNBOUND:                -0.846
REMARK  Name = 26c.sdf
REMARK  7 active torsions:
REMARK  status: ('A' for Active; 'I' for Inactive)
REMARK    1  A    between atoms: N_7  and  C_10
REMARK    2  A    between atoms: C_9  and  C_18
REMARK    3  A    between atoms: C_10  and  C_11
REMARK    4  A    between atoms: N_19  and  N_20
REMARK    5  A    between atoms: C_21  and  C_23
REMARK    6  A    between atoms: C_26  and  O_29
REMARK    7  A    between atoms: C_28  and  O_30
REMARK                            x       y       z     vdW  Elec       q    Type
REMARK                         _______ _______ _______ _____ _____    ______ ____
ROOT
ATOM      1  C   UNL     1      44.893  -1.948  18.280  0.00  0.00    -0.061 A 
ATOM      2  C   UNL     1      44.905  -3.072  17.462  0.00  0.00    -0.060 A 
ATOM      3  C   UNL     1      44.203  -4.229  17.817  0.00  0.00    -0.038 A 
ATOM      4  C   UNL     1      43.482  -4.233  19.024  0.00  0.00    +0.050 A 
ATOM      5  C   UNL     1      43.410  -3.090  19.835  0.00  0.00    +0.009 A 
ATOM      6  C   UNL     1      44.139  -1.941  19.456  0.00  0.00    -0.052 A 
ATOM      7  N   UNL     1      42.764  -5.226  19.665  0.00  0.00    -0.342 N 
ATOM      8  C   UNL     1      42.171  -4.715  20.790  0.00  0.00    +0.015 A 
ATOM      9  C   UNL     1      42.540  -3.392  20.928  0.00  0.00    +0.020 A 
ENDROOT
BRANCH   9  10
ATOM     10  C   UNL     1      42.112  -2.505  21.989  0.00  0.00    +0.055 C 
ATOM     11  N   UNL     1      40.873  -2.524  22.367  0.00  0.00    -0.187 NA
BRANCH  11  12
ATOM     12  N   UNL     1      40.567  -1.644  23.367  0.00  0.00    -0.203 N 
ATOM     13  C   UNL     1      40.715  -1.993  24.700  0.00  0.00    +0.267 C 
ATOM     14  O   UNL     1      41.116  -3.084  25.098  0.00  0.00    -0.268 OA
ATOM     15  H   UNL     1      40.236  -0.746  23.137  0.00  0.00    +0.000 HD
BRANCH  13  16
ATOM     16  C   UNL     1      40.345  -0.931  25.695  0.00  0.00    +0.080 A 
ATOM     17  C   UNL     1      40.682   0.398  25.383  0.00  0.00    -0.043 A 
ATOM     18  C   UNL     1      40.375   1.443  26.260  0.00  0.00    -0.019 A 
ATOM     19  C   UNL     1      39.726   1.160  27.455  0.00  0.00    +0.120 A 
ATOM     20  C   UNL     1      39.373  -0.143  27.784  0.00  0.00    +0.022 A 
ATOM     21  C   UNL     1      39.682  -1.188  26.907  0.00  0.00    +0.132 A 
BRANCH  19  22
ATOM     22  O   UNL     1      39.414   2.140  28.351  0.00  0.00    -0.507 OA
ATOM     23  H   UNL     1      38.603   2.106  28.819  0.00  0.00    +0.000 HD
ENDBRANCH  19  22
BRANCH  21  24
ATOM     24  O   UNL     1      39.328  -2.465  27.261  0.00  0.00    -0.506 OA
ATOM     25  H   UNL     1      38.619  -2.893  26.823  0.00  0.00    +0.000 HD
ENDBRANCH  21  24
ENDBRANCH  13  16
ENDBRANCH  11  12
ENDBRANCH   9  10
BRANCH   7  26
ATOM     26  C   UNL     1      42.726  -6.647  19.317  0.00  0.00    +0.048 C 
BRANCH  26  27
ATOM     27  C   UNL     1      41.354  -7.240  19.528  0.00  0.00    -0.028 A 
ATOM     28  C   UNL     1      40.412  -7.236  18.490  0.00  0.00    -0.055 A 
ATOM     29  C   UNL     1      39.099  -7.645  18.723  0.00  0.00    -0.043 A 
ATOM     30  C   UNL     1      38.725  -8.083  19.991  0.00  0.00    +0.041 A 
ATOM     31  C   UNL     1      39.666  -8.168  21.013  0.00  0.00    -0.043 A 
ATOM     32  C   UNL     1      40.979  -7.750  20.782  0.00  0.00    -0.055 A 
ATOM     33 CL   UNL     1      37.082  -8.489  20.303  0.00  0.00    -0.084 Cl
ENDBRANCH  26  27
ENDBRANCH   7  26
TORSDOF 7
ENDMDL
