MODEL 1
REMARK VINA RESULT:    -6.702      0.000      0.000
REMARK INTER + INTRA:          -7.672
REMARK INTER:                  -7.486
REMARK INTRA:                  -0.186
REMARK UNBOUND:                -0.186
REMARK  Name = 2.sdf
REMARK  2 active torsions:
REMARK  status: ('A' for Active; 'I' for Inactive)
REMARK    1  A    between atoms: C_9  and  C_10
REMARK    2  A    between atoms: C_11  and  C_12
REMARK                            x       y       z     vdW  Elec       q    Type
REMARK                         _______ _______ _______ _____ _____    ______ ____
ROOT
ATOM      1  C   UNL     1      39.419  -7.994  20.850  0.00  0.00    -0.061 A 
ATOM      2  C   UNL     1      38.856  -8.325  19.622  0.00  0.00    -0.060 A 
ATOM      3  C   UNL     1      39.485  -7.971  18.427  0.00  0.00    -0.038 A 
ATOM      4  C   UNL     1      40.697  -7.272  18.509  0.00  0.00    +0.047 A 
ATOM      5  C   UNL     1      41.297  -6.925  19.724  0.00  0.00    +0.007 A 
ATOM      6  C   UNL     1      40.631  -7.294  20.914  0.00  0.00    -0.052 A 
ATOM      7  N   UNL     1      41.504  -6.798  17.503  0.00  0.00    -0.360 N 
ATOM      8  C   UNL     1      42.587  -6.145  18.030  0.00  0.00    +0.010 A 
ATOM      9  C   UNL     1      42.502  -6.219  19.404  0.00  0.00    +0.000 A 
ATOM     10  H   UNL     1      41.329  -6.911  16.540  0.00  0.00    +0.000 HD
ENDROOT
BRANCH   9  11
ATOM     11  C   UNL     1      43.489  -5.629  20.259  0.00  0.00    -0.046 C 
ATOM     12  C   UNL     1      43.372  -4.438  20.868  0.00  0.00    +0.023 C 
BRANCH  12  13
ATOM     13  C   UNL     1      44.330  -3.758  21.760  0.00  0.00    +0.330 C 
ATOM     14  O   UNL     1      44.701  -2.514  21.417  0.00  0.00    -0.478 OA
ATOM     15  O   UNL     1      44.754  -4.312  22.763  0.00  0.00    -0.246 OA
ENDBRANCH  12  13
ENDBRANCH   9  11
TORSDOF 2
ENDMDL
MODEL 2
REMARK VINA RESULT:    -6.607      1.423      1.825
REMARK INTER + INTRA:          -7.566
REMARK INTER:                  -7.373
REMARK INTRA:                  -0.193
REMARK UNBOUND:                -0.186
REMARK  Name = 2.sdf
REMARK  2 active torsions:
REMARK  status: ('A' for Active; 'I' for Inactive)
REMARK    1  A    between atoms: C_9  and  C_10
REMARK    2  A    between atoms: C_11  and  C_12
REMARK                            x       y       z     vdW  Elec       q    Type
REMARK                         _______ _______ _______ _____ _____    ______ ____
ROOT
ATOM      1  C   UNL     1      38.408  -6.635  21.007  0.00  0.00    -0.061 A 
ATOM      2  C   UNL     1      37.882  -7.781  20.422  0.00  0.00    -0.060 A 
ATOM      3  C   UNL     1      38.492  -8.361  19.308  0.00  0.00    -0.038 A 
ATOM      4  C   UNL     1      39.646  -7.749  18.803  0.00  0.00    +0.047 A 
ATOM      5  C   UNL     1      40.209  -6.598  19.366  0.00  0.00    +0.007 A 
ATOM      6  C   UNL     1      39.563  -6.034  20.489  0.00  0.00    -0.052 A 
ATOM      7  N   UNL     1      40.424  -8.098  17.724  0.00  0.00    -0.360 N 
ATOM      8  C   UNL     1      41.449  -7.205  17.567  0.00  0.00    +0.010 A 
ATOM      9  C   UNL     1      41.359  -6.270  18.577  0.00  0.00    +0.000 A 
ATOM     10  H   UNL     1      40.266  -8.881  17.146  0.00  0.00    +0.000 HD
ENDROOT
BRANCH   9  11
ATOM     11  C   UNL     1      42.291  -5.188  18.697  0.00  0.00    -0.046 C 
ATOM     12  C   UNL     1      43.240  -5.086  19.641  0.00  0.00    +0.023 C 
BRANCH  12  13
ATOM     13  C   UNL     1      44.236  -4.016  19.838  0.00  0.00    +0.330 C 
ATOM     14  O   UNL     1      44.423  -3.584  21.096  0.00  0.00    -0.478 OA
ATOM     15  O   UNL     1      44.857  -3.556  18.892  0.00  0.00    -0.246 OA
ENDBRANCH  12  13
ENDBRANCH   9  11
TORSDOF 2
ENDMDL
MODEL 3
REMARK VINA RESULT:    -6.578      2.893      3.462
REMARK INTER + INTRA:          -7.534
REMARK INTER:                  -7.336
REMARK INTRA:                  -0.197
REMARK UNBOUND:                -0.186
REMARK  Name = 2.sdf
REMARK  2 active torsions:
REMARK  status: ('A' for Active; 'I' for Inactive)
REMARK    1  A    between atoms: C_9  and  C_10
REMARK    2  A    between atoms: C_11  and  C_12
REMARK                            x       y       z     vdW  Elec       q    Type
REMARK                         _______ _______ _______ _____ _____    ______ ____
ROOT
ATOM      1  C   UNL     1      38.706  -8.319  19.415  0.00  0.00    -0.061 A 
ATOM      2  C   UNL     1      39.352  -8.267  18.185  0.00  0.00    -0.060 A 
ATOM      3  C   UNL     1      40.509  -7.504  18.015  0.00  0.00    -0.038 A 
ATOM      4  C   UNL     1      40.991  -6.795  19.123  0.00  0.00    +0.047 A 
ATOM      5  C   UNL     1      40.373  -6.825  20.377  0.00  0.00    +0.007 A 
ATOM      6  C   UNL     1      39.201  -7.604  20.513  0.00  0.00    -0.052 A 
ATOM      7  N   UNL     1      42.085  -5.968  19.226  0.00  0.00    -0.360 N 
ATOM      8  C   UNL     1      42.176  -5.456  20.492  0.00  0.00    +0.010 A 
ATOM      9  C   UNL     1      41.142  -5.978  21.240  0.00  0.00    +0.000 A 
ATOM     10  H   UNL     1      42.713  -5.771  18.493  0.00  0.00    +0.000 HD
ENDROOT
BRANCH   9  11
ATOM     11  C   UNL     1      40.953  -5.637  22.619  0.00  0.00    -0.046 C 
ATOM     12  C   UNL     1      39.919  -4.935  23.107  0.00  0.00    +0.023 C 
BRANCH  12  13
ATOM     13  C   UNL     1      39.644  -4.542  24.502  0.00  0.00    +0.330 C 
ATOM     14  O   UNL     1      38.445  -4.881  25.003  0.00  0.00    -0.478 OA
ATOM     15  O   UNL     1      40.479  -3.939  25.159  0.00  0.00    -0.246 OA
ENDBRANCH  12  13
ENDBRANCH   9  11
TORSDOF 2
ENDMDL
