MODEL 1
REMARK VINA RESULT:    -6.614      0.000      0.000
REMARK INTER + INTRA:          -8.192
REMARK INTER:                  -7.967
REMARK INTRA:                  -0.225
REMARK UNBOUND:                -0.225
REMARK  Name = 3.sdf
REMARK  4 active torsions:
REMARK  status: ('A' for Active; 'I' for Inactive)
REMARK    1  A    between atoms: CG_9  and  CB_10
REMARK    2  A    between atoms: CB_10  and  CA_11
REMARK    3  A    between atoms: CA_11  and  C_12
REMARK    4  A    between atoms: CA_11  and  N_15
REMARK                            x       y       z     vdW  Elec       q    Type
REMARK                         _______ _______ _______ _____ _____    ______ ____
ROOT
ATOM      1  CZ3 TRP A   1      38.387  -8.341  19.699  0.00  0.00    -0.061 A 
ATOM      2  CH2 TRP A   1      39.047  -8.293  18.473  0.00  0.00    -0.060 A 
ATOM      3  CZ2 TRP A   1      40.011  -7.316  18.216  0.00  0.00    -0.038 A 
ATOM      4  CE2 TRP A   1      40.299  -6.401  19.237  0.00  0.00    +0.047 A 
ATOM      5  CD2 TRP A   1      39.679  -6.437  20.486  0.00  0.00    +0.003 A 
ATOM      6  CE3 TRP A   1      38.694  -7.423  20.713  0.00  0.00    -0.052 A 
ATOM      7  NE1 TRP A   1      41.183  -5.352  19.256  0.00  0.00    -0.360 N 
ATOM      8  CD1 TRP A   1      41.185  -4.755  20.486  0.00  0.00    +0.006 A 
ATOM      9  CG  TRP A   1      40.267  -5.402  21.292  0.00  0.00    -0.020 A 
ATOM     10  HE1 TRP A   1      41.737  -5.071  18.492  0.00  0.00    +0.000 HD
ENDROOT
BRANCH   9  11
ATOM     11  CB  TRP A   1      39.981  -5.131  22.742  0.00  0.00    -0.000 C 
BRANCH  11  12
ATOM     12  CA  TRP A   1      38.551  -4.670  23.057  0.00  0.00    +0.107 C 
BRANCH  12  13
ATOM     13  N   TRP A   1      38.157  -3.515  22.207  0.00  0.00    -0.318 N 
ATOM     14  H1  TRP A   1      38.710  -2.698  22.464  0.00  0.00    +0.000 HD
ATOM     15  H2  TRP A   1      37.166  -3.311  22.349  0.00  0.00    +0.000 HD
ATOM     16  H3  TRP A   1      38.320  -3.743  21.227  0.00  0.00    +0.000 HD
ENDBRANCH  12  13
BRANCH  12  17
ATOM     17  C   TRP A   1      38.360  -4.307  24.537  0.00  0.00    +0.322 C 
ATOM     18  O   TRP A   1      37.580  -5.178  25.225  0.00  0.00    -0.480 OA
ATOM     19  OXT TRP A   1      38.934  -3.379  25.090  0.00  0.00    -0.249 OA
ENDBRANCH  12  17
ENDBRANCH  11  12
ENDBRANCH   9  11
TORSDOF 4
ENDMDL
MODEL 2
REMARK VINA RESULT:    -6.452      3.628      5.125
REMARK INTER + INTRA:          -7.998
REMARK INTER:                  -7.734
REMARK INTRA:                  -0.264
REMARK UNBOUND:                -0.225
REMARK  Name = 3.sdf
REMARK  4 active torsions:
REMARK  status: ('A' for Active; 'I' for Inactive)
REMARK    1  A    between atoms: CG_9  and  CB_10
REMARK    2  A    between atoms: CB_10  and  CA_11
REMARK    3  A    between atoms: CA_11  and  C_12
REMARK    4  A    between atoms: CA_11  and  N_15
REMARK                            x       y       z     vdW  Elec       q    Type
REMARK                         _______ _______ _______ _____ _____    ______ ____
ROOT
ATOM      1  CZ3 TRP A   1      38.458  -8.341  19.722  0.00  0.00    -0.061 A 
ATOM      2  CH2 TRP A   1      37.499  -7.626  20.435  0.00  0.00    -0.060 A 
ATOM      3  CZ2 TRP A   1      37.824  -6.424  21.068  0.00  0.00    -0.038 A 
ATOM      4  CE2 TRP A   1      39.139  -5.960  20.946  0.00  0.00    +0.047 A 
ATOM      5  CD2 TRP A   1      40.118  -6.634  20.216  0.00  0.00    +0.003 A 
ATOM      6  CE3 TRP A   1      39.768  -7.857  19.603  0.00  0.00    -0.052 A 
ATOM      7  NE1 TRP A   1      39.726  -4.831  21.460  0.00  0.00    -0.360 N 
ATOM      8  CD1 TRP A   1      41.024  -4.738  21.042  0.00  0.00    +0.006 A 
ATOM      9  CG  TRP A   1      41.314  -5.837  20.255  0.00  0.00    -0.020 A 
ATOM     10  HE1 TRP A   1      39.275  -4.181  22.047  0.00  0.00    +0.000 HD
ENDROOT
BRANCH   9  11
ATOM     11  CB  TRP A   1      42.597  -6.119  19.525  0.00  0.00    -0.000 C 
BRANCH  11  12
ATOM     12  CA  TRP A   1      42.827  -5.294  18.251  0.00  0.00    +0.107 C 
BRANCH  12  13
ATOM     13  N   TRP A   1      43.043  -6.174  17.071  0.00  0.00    -0.318 N 
ATOM     14  H1  TRP A   1      42.141  -6.433  16.670  0.00  0.00    +0.000 HD
ATOM     15  H2  TRP A   1      43.539  -7.017  17.362  0.00  0.00    +0.000 HD
ATOM     16  H3  TRP A   1      43.596  -5.677  16.374  0.00  0.00    +0.000 HD
ENDBRANCH  12  13
BRANCH  12  17
ATOM     17  C   TRP A   1      44.004  -4.317  18.385  0.00  0.00    +0.322 C 
ATOM     18  O   TRP A   1      44.273  -3.946  19.662  0.00  0.00    -0.480 OA
ATOM     19  OXT TRP A   1      44.713  -3.973  17.449  0.00  0.00    -0.249 OA
ENDBRANCH  12  17
ENDBRANCH  11  12
ENDBRANCH   9  11
TORSDOF 4
ENDMDL
MODEL 3
REMARK VINA RESULT:    -6.443      3.483      4.753
REMARK INTER + INTRA:          -7.987
REMARK INTER:                  -7.737
REMARK INTRA:                  -0.250
REMARK UNBOUND:                -0.225
REMARK  Name = 3.sdf
REMARK  4 active torsions:
REMARK  status: ('A' for Active; 'I' for Inactive)
REMARK    1  A    between atoms: CG_9  and  CB_10
REMARK    2  A    between atoms: CB_10  and  CA_11
REMARK    3  A    between atoms: CA_11  and  C_12
REMARK    4  A    between atoms: CA_11  and  N_15
REMARK                            x       y       z     vdW  Elec       q    Type
REMARK                         _______ _______ _______ _____ _____    ______ ____
ROOT
ATOM      1  CZ3 TRP A   1      38.153  -8.360  19.784  0.00  0.00    -0.061 A 
ATOM      2  CH2 TRP A   1      37.178  -7.596  20.421  0.00  0.00    -0.060 A 
ATOM      3  CZ2 TRP A   1      37.519  -6.433  21.117  0.00  0.00    -0.038 A 
ATOM      4  CE2 TRP A   1      38.868  -6.060  21.136  0.00  0.00    +0.047 A 
ATOM      5  CD2 TRP A   1      39.867  -6.785  20.486  0.00  0.00    +0.003 A 
ATOM      6  CE3 TRP A   1      39.498  -7.966  19.807  0.00  0.00    -0.052 A 
ATOM      7  NE1 TRP A   1      39.476  -4.986  21.737  0.00  0.00    -0.360 N 
ATOM      8  CD1 TRP A   1      40.813  -4.975  21.450  0.00  0.00    +0.006 A 
ATOM      9  CG  TRP A   1      41.104  -6.074  20.664  0.00  0.00    -0.020 A 
ATOM     10  HE1 TRP A   1      39.015  -4.319  22.296  0.00  0.00    +0.000 HD
ENDROOT
BRANCH   9  11
ATOM     11  CB  TRP A   1      42.431  -6.430  20.055  0.00  0.00    -0.000 C 
BRANCH  11  12
ATOM     12  CA  TRP A   1      42.788  -5.679  18.765  0.00  0.00    +0.107 C 
BRANCH  12  13
ATOM     13  N   TRP A   1      43.109  -4.253  19.042  0.00  0.00    -0.318 N 
ATOM     14  H1  TRP A   1      43.829  -4.200  19.762  0.00  0.00    +0.000 HD
ATOM     15  H2  TRP A   1      42.269  -3.772  19.368  0.00  0.00    +0.000 HD
ATOM     16  H3  TRP A   1      43.445  -3.808  18.189  0.00  0.00    +0.000 HD
ENDBRANCH  12  13
BRANCH  12  17
ATOM     17  C   TRP A   1      41.676  -5.759  17.708  0.00  0.00    +0.322 C 
ATOM     18  O   TRP A   1      41.588  -6.962  17.088  0.00  0.00    -0.480 OA
ATOM     19  OXT TRP A   1      40.867  -4.865  17.502  0.00  0.00    -0.249 OA
ENDBRANCH  12  17
ENDBRANCH  11  12
ENDBRANCH   9  11
TORSDOF 4
ENDMDL
