MODEL 1
REMARK VINA RESULT:    -7.325      0.000      0.000
REMARK INTER + INTRA:          -9.394
REMARK INTER:                  -8.823
REMARK INTRA:                  -0.571
REMARK UNBOUND:                -0.571
REMARK  Name = 4b.sdf
REMARK  4 active torsions:
REMARK  status: ('A' for Active; 'I' for Inactive)
REMARK    1  A    between atoms: N_7  and  C_11
REMARK    2  A    between atoms: C_9  and  C_10
REMARK    3  A    between atoms: C_10  and  O_18
REMARK    4  A    between atoms: C_11  and  C_12
REMARK                            x       y       z     vdW  Elec       q    Type
REMARK                         _______ _______ _______ _____ _____    ______ ____
ROOT
ATOM      1  C   UNL     1      37.340  -7.784  20.288  0.00  0.00    -0.061 A 
ATOM      2  C   UNL     1      38.299  -8.346  19.451  0.00  0.00    -0.060 A 
ATOM      3  C   UNL     1      39.624  -7.892  19.455  0.00  0.00    -0.038 A 
ATOM      4  C   UNL     1      39.966  -6.829  20.310  0.00  0.00    +0.050 A 
ATOM      5  C   UNL     1      39.029  -6.301  21.208  0.00  0.00    +0.005 A 
ATOM      6  C   UNL     1      37.700  -6.779  21.183  0.00  0.00    -0.052 A 
ATOM      7  N   UNL     1      41.131  -6.096  20.475  0.00  0.00    -0.342 N 
ATOM      8  C   UNL     1      40.965  -5.205  21.510  0.00  0.00    +0.011 A 
ATOM      9  C   UNL     1      39.690  -5.316  22.007  0.00  0.00    +0.003 A 
ENDROOT
BRANCH   9  10
ATOM     10  C   UNL     1      39.076  -4.537  23.120  0.00  0.00    +0.071 C 
BRANCH  10  11
ATOM     11  O   UNL     1      38.286  -3.454  22.641  0.00  0.00    -0.390 OA
ATOM     12  H   UNL     1      38.152  -2.811  23.355  0.00  0.00    +0.000 HD
ENDBRANCH  10  11
ENDBRANCH   9  10
BRANCH   7  13
ATOM     13  C   UNL     1      42.313  -6.101  19.606  0.00  0.00    +0.048 C 
BRANCH  13  14
ATOM     14  C   UNL     1      42.445  -4.821  18.818  0.00  0.00    -0.025 A 
ATOM     15  C   UNL     1      43.653  -4.119  18.806  0.00  0.00    -0.039 A 
ATOM     16  C   UNL     1      43.702  -2.883  18.179  0.00  0.00    +0.028 A 
ATOM     17  N   UNL     1      42.656  -2.326  17.535  0.00  0.00    -0.263 NA
ATOM     18  C   UNL     1      41.510  -3.039  17.511  0.00  0.00    +0.028 A 
ATOM     19  C   UNL     1      41.359  -4.275  18.123  0.00  0.00    -0.039 A 
ENDBRANCH  13  14
ENDBRANCH   7  13
TORSDOF 4
ENDMDL
MODEL 2
REMARK VINA RESULT:    -7.190      2.587      5.163
REMARK INTER + INTRA:          -9.232
REMARK INTER:                  -8.597
REMARK INTRA:                  -0.635
REMARK UNBOUND:                -0.571
REMARK  Name = 4b.sdf
REMARK  4 active torsions:
REMARK  status: ('A' for Active; 'I' for Inactive)
REMARK    1  A    between atoms: N_7  and  C_11
REMARK    2  A    between atoms: C_9  and  C_10
REMARK    3  A    between atoms: C_10  and  O_18
REMARK    4  A    between atoms: C_11  and  C_12
REMARK                            x       y       z     vdW  Elec       q    Type
REMARK                         _______ _______ _______ _____ _____    ______ ____
ROOT
ATOM      1  C   UNL     1      38.660  -8.362  19.757  0.00  0.00    -0.061 A 
ATOM      2  C   UNL     1      37.804  -7.554  20.500  0.00  0.00    -0.060 A 
ATOM      3  C   UNL     1      38.162  -6.246  20.851  0.00  0.00    -0.038 A 
ATOM      4  C   UNL     1      39.424  -5.767  20.459  0.00  0.00    +0.050 A 
ATOM      5  C   UNL     1      40.266  -6.543  19.651  0.00  0.00    +0.005 A 
ATOM      6  C   UNL     1      39.880  -7.858  19.310  0.00  0.00    -0.052 A 
ATOM      7  N   UNL     1      40.105  -4.591  20.728  0.00  0.00    -0.342 N 
ATOM      8  C   UNL     1      41.292  -4.583  20.031  0.00  0.00    +0.011 A 
ATOM      9  C   UNL     1      41.419  -5.759  19.334  0.00  0.00    +0.003 A 
ENDROOT
BRANCH   9  10
ATOM     10  C   UNL     1      42.550  -6.180  18.459  0.00  0.00    +0.071 C 
BRANCH  10  11
ATOM     11  O   UNL     1      42.209  -6.112  17.078  0.00  0.00    -0.390 OA
ATOM     12  H   UNL     1      42.615  -5.324  16.684  0.00  0.00    +0.000 HD
ENDBRANCH  10  11
ENDBRANCH   9  10
BRANCH   7  13
ATOM     13  C   UNL     1      39.754  -3.567  21.718  0.00  0.00    +0.048 C 
BRANCH  13  14
ATOM     14  C   UNL     1      39.789  -4.104  23.127  0.00  0.00    -0.025 A 
ATOM     15  C   UNL     1      38.617  -4.182  23.884  0.00  0.00    -0.039 A 
ATOM     16  C   UNL     1      38.704  -4.558  25.216  0.00  0.00    +0.028 A 
ATOM     17  N   UNL     1      39.858  -4.899  25.826  0.00  0.00    -0.263 NA
ATOM     18  C   UNL     1      40.975  -4.869  25.068  0.00  0.00    +0.028 A 
ATOM     19  C   UNL     1      40.991  -4.490  23.733  0.00  0.00    -0.039 A 
ENDBRANCH  13  14
ENDBRANCH   7  13
TORSDOF 4
ENDMDL
MODEL 3
REMARK VINA RESULT:    -7.063      2.791      4.191
REMARK INTER + INTRA:          -9.079
REMARK INTER:                  -8.548
REMARK INTRA:                  -0.531
REMARK UNBOUND:                -0.571
REMARK  Name = 4b.sdf
REMARK  4 active torsions:
REMARK  status: ('A' for Active; 'I' for Inactive)
REMARK    1  A    between atoms: N_7  and  C_11
REMARK    2  A    between atoms: C_9  and  C_10
REMARK    3  A    between atoms: C_10  and  O_18
REMARK    4  A    between atoms: C_11  and  C_12
REMARK                            x       y       z     vdW  Elec       q    Type
REMARK                         _______ _______ _______ _____ _____    ______ ____
ROOT
ATOM      1  C   UNL     1      38.684  -8.389  19.066  0.00  0.00    -0.061 A 
ATOM      2  C   UNL     1      38.078  -7.937  20.235  0.00  0.00    -0.060 A 
ATOM      3  C   UNL     1      38.710  -7.005  21.068  0.00  0.00    -0.038 A 
ATOM      4  C   UNL     1      39.991  -6.548  20.712  0.00  0.00    +0.050 A 
ATOM      5  C   UNL     1      40.582  -6.939  19.504  0.00  0.00    +0.005 A 
ATOM      6  C   UNL     1      39.922  -7.879  18.682  0.00  0.00    -0.052 A 
ATOM      7  N   UNL     1      40.906  -5.728  21.355  0.00  0.00    -0.342 N 
ATOM      8  C   UNL     1      41.993  -5.529  20.534  0.00  0.00    +0.011 A 
ATOM      9  C   UNL     1      41.822  -6.239  19.371  0.00  0.00    +0.003 A 
ENDROOT
BRANCH   9  10
ATOM     10  C   UNL     1      42.755  -6.322  18.211  0.00  0.00    +0.071 C 
BRANCH  10  11
ATOM     11  O   UNL     1      42.171  -5.806  17.020  0.00  0.00    -0.390 OA
ATOM     12  H   UNL     1      42.072  -4.844  17.100  0.00  0.00    +0.000 HD
ENDBRANCH  10  11
ENDBRANCH   9  10
BRANCH   7  13
ATOM     13  C   UNL     1      40.860  -5.265  22.746  0.00  0.00    +0.048 C 
BRANCH  13  14
ATOM     14  C   UNL     1      40.964  -3.763  22.848  0.00  0.00    -0.025 A 
ATOM     15  C   UNL     1      41.976  -3.174  23.609  0.00  0.00    -0.039 A 
ATOM     16  C   UNL     1      41.966  -1.799  23.788  0.00  0.00    +0.028 A 
ATOM     17  N   UNL     1      41.053  -0.977  23.231  0.00  0.00    -0.263 NA
ATOM     18  C   UNL     1      40.111  -1.555  22.457  0.00  0.00    +0.028 A 
ATOM     19  C   UNL     1      40.029  -2.922  22.232  0.00  0.00    -0.039 A 
ENDBRANCH  13  14
ENDBRANCH   7  13
TORSDOF 4
ENDMDL
