MODEL 1
REMARK VINA RESULT:    -7.726      0.000      0.000
REMARK INTER + INTRA:          -9.886
REMARK INTER:                  -9.307
REMARK INTRA:                  -0.579
REMARK UNBOUND:                -0.579
REMARK  Name = 4c.sdf
REMARK  4 active torsions:
REMARK  status: ('A' for Active; 'I' for Inactive)
REMARK    1  A    between atoms: N_7  and  C_11
REMARK    2  A    between atoms: C_9  and  C_10
REMARK    3  A    between atoms: C_10  and  O_19
REMARK    4  A    between atoms: C_11  and  C_12
REMARK                            x       y       z     vdW  Elec       q    Type
REMARK                         _______ _______ _______ _____ _____    ______ ____
ROOT
ATOM      1  C   UNL     1      37.404  -7.874  20.189  0.00  0.00    -0.061 A 
ATOM      2  C   UNL     1      38.405  -8.376  19.366  0.00  0.00    -0.060 A 
ATOM      3  C   UNL     1      39.701  -7.856  19.406  0.00  0.00    -0.038 A 
ATOM      4  C   UNL     1      39.972  -6.816  20.312  0.00  0.00    +0.050 A 
ATOM      5  C   UNL     1      38.993  -6.322  21.178  0.00  0.00    +0.005 A 
ATOM      6  C   UNL     1      37.686  -6.851  21.100  0.00  0.00    -0.052 A 
ATOM      7  N   UNL     1      41.122  -6.083  20.547  0.00  0.00    -0.342 N 
ATOM      8  C   UNL     1      40.907  -5.197  21.571  0.00  0.00    +0.011 A 
ATOM      9  C   UNL     1      39.597  -5.315  21.996  0.00  0.00    +0.003 A 
ENDROOT
BRANCH   9  10
ATOM     10  C   UNL     1      38.931  -4.540  23.080  0.00  0.00    +0.071 C 
BRANCH  10  11
ATOM     11  O   UNL     1      38.139  -3.469  22.569  0.00  0.00    -0.390 OA
ATOM     12  H   UNL     1      37.801  -3.707  21.692  0.00  0.00    +0.000 HD
ENDBRANCH  10  11
ENDBRANCH   9  10
BRANCH   7  13
ATOM     13  C   UNL     1      42.354  -6.143  19.762  0.00  0.00    +0.048 C 
BRANCH  13  14
ATOM     14  C   UNL     1      42.691  -4.807  19.147  0.00  0.00    -0.028 A 
ATOM     15  C   UNL     1      43.923  -4.189  19.416  0.00  0.00    -0.055 A 
ATOM     16  C   UNL     1      44.206  -2.919  18.912  0.00  0.00    -0.043 A 
ATOM     17  C   UNL     1      43.262  -2.259  18.129  0.00  0.00    +0.041 A 
ATOM     18  C   UNL     1      42.050  -2.871  17.823  0.00  0.00    -0.043 A 
ATOM     19  C   UNL     1      41.765  -4.141  18.329  0.00  0.00    -0.055 A 
ATOM     20 CL   UNL     1      43.593  -0.674  17.548  0.00  0.00    -0.084 Cl
ENDBRANCH  13  14
ENDBRANCH   7  13
TORSDOF 4
ENDMDL
MODEL 2
REMARK VINA RESULT:    -7.628      3.634      5.653
REMARK INTER + INTRA:          -9.768
REMARK INTER:                  -9.172
REMARK INTRA:                  -0.596
REMARK UNBOUND:                -0.579
REMARK  Name = 4c.sdf
REMARK  4 active torsions:
REMARK  status: ('A' for Active; 'I' for Inactive)
REMARK    1  A    between atoms: N_7  and  C_11
REMARK    2  A    between atoms: C_9  and  C_10
REMARK    3  A    between atoms: C_10  and  O_19
REMARK    4  A    between atoms: C_11  and  C_12
REMARK                            x       y       z     vdW  Elec       q    Type
REMARK                         _______ _______ _______ _____ _____    ______ ____
ROOT
ATOM      1  C   UNL     1      38.606  -8.349  19.739  0.00  0.00    -0.061 A 
ATOM      2  C   UNL     1      37.787  -7.545  20.524  0.00  0.00    -0.060 A 
ATOM      3  C   UNL     1      38.196  -6.270  20.923  0.00  0.00    -0.038 A 
ATOM      4  C   UNL     1      39.456  -5.812  20.499  0.00  0.00    +0.050 A 
ATOM      5  C   UNL     1      40.280  -6.586  19.677  0.00  0.00    +0.005 A 
ATOM      6  C   UNL     1      39.851  -7.880  19.308  0.00  0.00    -0.052 A 
ATOM      7  N   UNL     1      40.141  -4.639  20.762  0.00  0.00    -0.342 N 
ATOM      8  C   UNL     1      41.330  -4.632  20.081  0.00  0.00    +0.011 A 
ATOM      9  C   UNL     1      41.456  -5.822  19.390  0.00  0.00    +0.003 A 
ENDROOT
BRANCH   9  10
ATOM     10  C   UNL     1      42.594  -6.244  18.526  0.00  0.00    +0.071 C 
BRANCH  10  11
ATOM     11  O   UNL     1      42.280  -6.152  17.137  0.00  0.00    -0.390 OA
ATOM     12  H   UNL     1      42.680  -5.349  16.767  0.00  0.00    +0.000 HD
ENDBRANCH  10  11
ENDBRANCH   9  10
BRANCH   7  13
ATOM     13  C   UNL     1      39.733  -3.601  21.708  0.00  0.00    +0.048 C 
BRANCH  13  14
ATOM     14  C   UNL     1      39.667  -4.127  23.121  0.00  0.00    -0.028 A 
ATOM     15  C   UNL     1      38.444  -4.169  23.809  0.00  0.00    -0.055 A 
ATOM     16  C   UNL     1      38.393  -4.582  25.142  0.00  0.00    -0.043 A 
ATOM     17  C   UNL     1      39.562  -4.965  25.793  0.00  0.00    +0.041 A 
ATOM     18  C   UNL     1      40.778  -4.964  25.115  0.00  0.00    -0.043 A 
ATOM     19  C   UNL     1      40.831  -4.548  23.783  0.00  0.00    -0.055 A 
ATOM     20 CL   UNL     1      39.504  -5.428  27.449  0.00  0.00    -0.084 Cl
ENDBRANCH  13  14
ENDBRANCH   7  13
TORSDOF 4
ENDMDL
MODEL 3
REMARK VINA RESULT:    -7.565      3.436      5.560
REMARK INTER + INTRA:          -9.691
REMARK INTER:                  -9.319
REMARK INTRA:                  -0.372
REMARK UNBOUND:                -0.579
REMARK  Name = 4c.sdf
REMARK  4 active torsions:
REMARK  status: ('A' for Active; 'I' for Inactive)
REMARK    1  A    between atoms: N_7  and  C_11
REMARK    2  A    between atoms: C_9  and  C_10
REMARK    3  A    between atoms: C_10  and  O_19
REMARK    4  A    between atoms: C_11  and  C_12
REMARK                            x       y       z     vdW  Elec       q    Type
REMARK                         _______ _______ _______ _____ _____    ______ ____
ROOT
ATOM      1  C   UNL     1      41.214  -7.174  17.529  0.00  0.00    -0.061 A 
ATOM      2  C   UNL     1      41.898  -6.044  17.963  0.00  0.00    -0.060 A 
ATOM      3  C   UNL     1      41.496  -5.351  19.107  0.00  0.00    -0.038 A 
ATOM      4  C   UNL     1      40.385  -5.834  19.820  0.00  0.00    +0.050 A 
ATOM      5  C   UNL     1      39.706  -6.991  19.427  0.00  0.00    +0.005 A 
ATOM      6  C   UNL     1      40.120  -7.657  18.254  0.00  0.00    -0.052 A 
ATOM      7  N   UNL     1      39.735  -5.350  20.942  0.00  0.00    -0.342 N 
ATOM      8  C   UNL     1      38.719  -6.200  21.294  0.00  0.00    +0.011 A 
ATOM      9  C   UNL     1      38.668  -7.236  20.381  0.00  0.00    +0.003 A 
ENDROOT
BRANCH   9  10
ATOM     10  C   UNL     1      37.713  -8.381  20.373  0.00  0.00    +0.071 C 
BRANCH  10  11
ATOM     11  O   UNL     1      36.378  -7.972  20.667  0.00  0.00    -0.390 OA
ATOM     12  H   UNL     1      35.839  -8.027  19.862  0.00  0.00    +0.000 HD
ENDBRANCH  10  11
ENDBRANCH   9  10
BRANCH   7  13
ATOM     13  C   UNL     1      39.998  -4.072  21.602  0.00  0.00    +0.048 C 
BRANCH  13  14
ATOM     14  C   UNL     1      39.760  -4.151  23.090  0.00  0.00    -0.028 A 
ATOM     15  C   UNL     1      40.698  -4.771  23.929  0.00  0.00    -0.055 A 
ATOM     16  C   UNL     1      40.445  -4.915  25.295  0.00  0.00    -0.043 A 
ATOM     17  C   UNL     1      39.255  -4.431  25.832  0.00  0.00    +0.041 A 
ATOM     18  C   UNL     1      38.329  -3.781  25.020  0.00  0.00    -0.043 A 
ATOM     19  C   UNL     1      38.581  -3.640  23.654  0.00  0.00    -0.055 A 
ATOM     20 CL   UNL     1      38.923  -4.651  27.505  0.00  0.00    -0.084 Cl
ENDBRANCH  13  14
ENDBRANCH   7  13
TORSDOF 4
ENDMDL
