MODEL 1
REMARK VINA RESULT:    -8.921      0.000      0.000
REMARK INTER + INTRA:         -11.502
REMARK INTER:                 -11.006
REMARK INTRA:                  -0.496
REMARK UNBOUND:                -0.496
REMARK  Name = 5d.sdf
REMARK  5 active torsions:
REMARK  status: ('A' for Active; 'I' for Inactive)
REMARK    1  A    between atoms: C_9  and  C_10
REMARK    2  A    between atoms: C_11  and  C_19
REMARK    3  A    between atoms: C_12  and  C_13
REMARK    4  A    between atoms: C_19  and  O_20
REMARK    5  A    between atoms: O_20  and  C_22
REMARK                            x       y       z     vdW  Elec       q    Type
REMARK                         _______ _______ _______ _____ _____    ______ ____
ROOT
ATOM      1  C   UNL     1      40.744  -0.535  24.287  0.00  0.00    -0.061 A 
ATOM      2  C   UNL     1      40.824  -0.554  22.901  0.00  0.00    -0.060 A 
ATOM      3  C   UNL     1      40.679  -1.750  22.193  0.00  0.00    -0.037 A 
ATOM      4  C   UNL     1      40.451  -2.939  22.913  0.00  0.00    +0.057 A 
ATOM      5  C   UNL     1      40.361  -2.940  24.313  0.00  0.00    +0.007 A 
ATOM      6  C   UNL     1      40.514  -1.716  25.001  0.00  0.00    -0.052 A 
ATOM      7  N   UNL     1      40.214  -4.240  22.469  0.00  0.00    -0.283 N 
ATOM      8  C   UNL     1      40.063  -5.047  23.588  0.00  0.00    +0.021 A 
ATOM      9  C   UNL     1      40.114  -4.282  24.730  0.00  0.00    +0.001 A 
ATOM     10  C   UNL     1      40.114  -4.683  21.124  0.00  0.00    +0.263 C 
ATOM     11  O   UNL     1      40.655  -4.020  20.243  0.00  0.00    -0.267 OA
ENDROOT
BRANCH  10  12
ATOM     12  C   UNL     1      39.377  -5.915  20.738  0.00  0.00    +0.040 A 
ATOM     13  C   UNL     1      38.005  -6.018  21.007  0.00  0.00    -0.049 A 
ATOM     14  C   UNL     1      37.322  -7.196  20.715  0.00  0.00    -0.061 A 
ATOM     15  C   UNL     1      37.999  -8.259  20.119  0.00  0.00    -0.062 A 
ATOM     16  C   UNL     1      39.350  -8.136  19.791  0.00  0.00    -0.061 A 
ATOM     17  C   UNL     1      40.043  -6.960  20.090  0.00  0.00    -0.049 A 
ENDBRANCH  10  12
BRANCH   9  18
ATOM     18  C   UNL     1      39.951  -4.763  26.073  0.00  0.00    -0.046 C 
ATOM     19  C   UNL     1      38.779  -5.079  26.648  0.00  0.00    +0.023 C 
BRANCH  19  20
ATOM     20  C   UNL     1      38.576  -5.569  28.028  0.00  0.00    +0.332 C 
ATOM     21  O   UNL     1      39.405  -6.282  28.574  0.00  0.00    -0.246 OA
BRANCH  20  22
ATOM     22  O   UNL     1      37.409  -5.148  28.573  0.00  0.00    -0.465 OA
ATOM     23  C   UNL     1      36.736  -4.164  27.779  0.00  0.00    +0.082 C 
ENDBRANCH  20  22
ENDBRANCH  19  20
ENDBRANCH   9  18
TORSDOF 4
ENDMDL
MODEL 2
REMARK VINA RESULT:    -8.647      3.003      5.672
REMARK INTER + INTRA:         -11.164
REMARK INTER:                 -11.029
REMARK INTRA:                  -0.135
REMARK UNBOUND:                -0.496
REMARK  Name = 5d.sdf
REMARK  5 active torsions:
REMARK  status: ('A' for Active; 'I' for Inactive)
REMARK    1  A    between atoms: C_9  and  C_10
REMARK    2  A    between atoms: C_11  and  C_19
REMARK    3  A    between atoms: C_12  and  C_13
REMARK    4  A    between atoms: C_19  and  O_20
REMARK    5  A    between atoms: O_20  and  C_22
REMARK                            x       y       z     vdW  Elec       q    Type
REMARK                         _______ _______ _______ _____ _____    ______ ____
ROOT
ATOM      1  C   UNL     1      37.928  -8.350  19.998  0.00  0.00    -0.061 A 
ATOM      2  C   UNL     1      38.786  -8.509  18.919  0.00  0.00    -0.060 A 
ATOM      3  C   UNL     1      39.788  -7.571  18.658  0.00  0.00    -0.037 A 
ATOM      4  C   UNL     1      39.912  -6.458  19.512  0.00  0.00    +0.057 A 
ATOM      5  C   UNL     1      39.059  -6.282  20.612  0.00  0.00    +0.007 A 
ATOM      6  C   UNL     1      38.054  -7.246  20.848  0.00  0.00    -0.052 A 
ATOM      7  N   UNL     1      40.843  -5.419  19.522  0.00  0.00    -0.283 N 
ATOM      8  C   UNL     1      40.513  -4.568  20.568  0.00  0.00    +0.021 A 
ATOM      9  C   UNL     1      39.450  -5.080  21.274  0.00  0.00    +0.001 A 
ATOM     10  C   UNL     1      41.950  -5.249  18.651  0.00  0.00    +0.263 C 
ATOM     11  O   UNL     1      41.921  -5.789  17.548  0.00  0.00    -0.267 OA
ENDROOT
BRANCH  10  12
ATOM     12  C   UNL     1      43.147  -4.449  19.023  0.00  0.00    +0.040 A 
ATOM     13  C   UNL     1      43.553  -4.385  20.363  0.00  0.00    -0.049 A 
ATOM     14  C   UNL     1      44.629  -3.580  20.729  0.00  0.00    -0.061 A 
ATOM     15  C   UNL     1      45.326  -2.869  19.753  0.00  0.00    -0.062 A 
ATOM     16  C   UNL     1      44.965  -2.982  18.409  0.00  0.00    -0.061 A 
ATOM     17  C   UNL     1      43.880  -3.781  18.037  0.00  0.00    -0.049 A 
ENDBRANCH  10  12
BRANCH   9  18
ATOM     18  C   UNL     1      38.860  -4.500  22.448  0.00  0.00    -0.046 C 
ATOM     19  C   UNL     1      39.306  -4.667  23.704  0.00  0.00    +0.023 C 
BRANCH  19  20
ATOM     20  C   UNL     1      38.719  -4.090  24.932  0.00  0.00    +0.332 C 
ATOM     21  O   UNL     1      38.746  -2.886  25.142  0.00  0.00    -0.246 OA
BRANCH  20  22
ATOM     22  O   UNL     1      38.182  -5.026  25.753  0.00  0.00    -0.465 OA
ATOM     23  C   UNL     1      36.807  -4.779  26.068  0.00  0.00    +0.082 C 
ENDBRANCH  20  22
ENDBRANCH  19  20
ENDBRANCH   9  18
TORSDOF 4
ENDMDL
MODEL 3
REMARK VINA RESULT:    -8.405      2.530      6.363
REMARK INTER + INTRA:         -10.866
REMARK INTER:                 -10.312
REMARK INTRA:                  -0.553
REMARK UNBOUND:                -0.496
REMARK  Name = 5d.sdf
REMARK  5 active torsions:
REMARK  status: ('A' for Active; 'I' for Inactive)
REMARK    1  A    between atoms: C_9  and  C_10
REMARK    2  A    between atoms: C_11  and  C_19
REMARK    3  A    between atoms: C_12  and  C_13
REMARK    4  A    between atoms: C_19  and  O_20
REMARK    5  A    between atoms: O_20  and  C_22
REMARK                            x       y       z     vdW  Elec       q    Type
REMARK                         _______ _______ _______ _____ _____    ______ ____
ROOT
ATOM      1  C   UNL     1      44.145  -4.203  21.447  0.00  0.00    -0.061 A 
ATOM      2  C   UNL     1      44.305  -3.514  22.642  0.00  0.00    -0.060 A 
ATOM      3  C   UNL     1      43.253  -3.413  23.556  0.00  0.00    -0.037 A 
ATOM      4  C   UNL     1      42.024  -4.024  23.242  0.00  0.00    +0.057 A 
ATOM      5  C   UNL     1      41.843  -4.730  22.043  0.00  0.00    +0.007 A 
ATOM      6  C   UNL     1      42.923  -4.811  21.138  0.00  0.00    -0.052 A 
ATOM      7  N   UNL     1      40.846  -4.131  23.983  0.00  0.00    -0.283 N 
ATOM      8  C   UNL     1      39.924  -4.823  23.211  0.00  0.00    +0.021 A 
ATOM      9  C   UNL     1      40.507  -5.232  22.034  0.00  0.00    +0.001 A 
ATOM     10  C   UNL     1      40.613  -3.651  25.298  0.00  0.00    +0.263 C 
ATOM     11  O   UNL     1      41.304  -2.728  25.721  0.00  0.00    -0.267 OA
ENDROOT
BRANCH  10  12
ATOM     12  C   UNL     1      39.569  -4.226  26.187  0.00  0.00    +0.040 A 
ATOM     13  C   UNL     1      38.331  -3.580  26.316  0.00  0.00    -0.049 A 
ATOM     14  C   UNL     1      37.376  -4.072  27.202  0.00  0.00    -0.061 A 
ATOM     15  C   UNL     1      37.639  -5.230  27.932  0.00  0.00    -0.062 A 
ATOM     16  C   UNL     1      38.845  -5.911  27.758  0.00  0.00    -0.061 A 
ATOM     17  C   UNL     1      39.812  -5.417  26.878  0.00  0.00    -0.049 A 
ENDBRANCH  10  12
BRANCH   9  18
ATOM     18  C   UNL     1      39.875  -6.012  21.007  0.00  0.00    -0.046 C 
ATOM     19  C   UNL     1      39.809  -7.353  20.981  0.00  0.00    +0.023 C 
BRANCH  19  20
ATOM     20  C   UNL     1      39.174  -8.185  19.937  0.00  0.00    +0.332 C 
ATOM     21  O   UNL     1      37.971  -8.405  19.948  0.00  0.00    -0.246 OA
BRANCH  20  22
ATOM     22  O   UNL     1      40.057  -8.650  19.020  0.00  0.00    -0.465 OA
ATOM     23  C   UNL     1      40.167  -7.810  17.865  0.00  0.00    +0.082 C 
ENDBRANCH  20  22
ENDBRANCH  19  20
ENDBRANCH   9  18
TORSDOF 4
ENDMDL
