MODEL 1
REMARK VINA RESULT:    -6.655      0.000      0.000
REMARK INTER + INTRA:          -8.680
REMARK INTER:                  -8.406
REMARK INTRA:                  -0.274
REMARK UNBOUND:                -0.274
REMARK  Name = 6.sdf
REMARK  6 active torsions:
REMARK  status: ('A' for Active; 'I' for Inactive)
REMARK    1  A    between atoms: C_9  and  C_10
REMARK    2  A    between atoms: C_10  and  C_11
REMARK    3  A    between atoms: C_11  and  C_12
REMARK    4  A    between atoms: C_11  and  N_15
REMARK    5  A    between atoms: C_12  and  O_13
REMARK    6  A    between atoms: O_13  and  C_16
REMARK                            x       y       z     vdW  Elec       q    Type
REMARK                         _______ _______ _______ _____ _____    ______ ____
ROOT
ATOM      1  C   UNL     1      38.688  -8.291  19.794  0.00  0.00    -0.061 A 
ATOM      2  C   UNL     1      39.304  -8.150  18.554  0.00  0.00    -0.060 A 
ATOM      3  C   UNL     1      40.151  -7.068  18.296  0.00  0.00    -0.038 A 
ATOM      4  C   UNL     1      40.371  -6.152  19.330  0.00  0.00    +0.047 A 
ATOM      5  C   UNL     1      39.788  -6.277  20.594  0.00  0.00    +0.003 A 
ATOM      6  C   UNL     1      38.918  -7.365  20.819  0.00  0.00    -0.052 A 
ATOM      7  N   UNL     1      41.150  -5.020  19.353  0.00  0.00    -0.360 N 
ATOM      8  C   UNL     1      41.116  -4.446  20.593  0.00  0.00    +0.006 A 
ATOM      9  C   UNL     1      40.287  -5.201  21.403  0.00  0.00    -0.020 A 
ATOM     10  H   UNL     1      41.658  -4.672  18.586  0.00  0.00    +0.000 HD
ENDROOT
BRANCH   9  11
ATOM     11  C   UNL     1      40.017  -4.958  22.861  0.00  0.00    -0.000 C 
BRANCH  11  12
ATOM     12  C   UNL     1      38.585  -4.506  23.177  0.00  0.00    +0.107 C 
BRANCH  12  13
ATOM     13  N   UNL     1      38.360  -3.130  22.648  0.00  0.00    -0.318 N 
ATOM     14  H   UNL     1      39.140  -2.530  22.916  0.00  0.00    +0.000 HD
ATOM     15  H   UNL     1      37.494  -2.755  23.034  0.00  0.00    +0.000 HD
ATOM     16  H   UNL     1      38.291  -3.163  21.631  0.00  0.00    +0.000 HD
ENDBRANCH  12  13
BRANCH  12  17
ATOM     17  C   UNL     1      38.367  -4.520  24.696  0.00  0.00    +0.324 C 
ATOM     18  O   UNL     1      39.109  -3.969  25.500  0.00  0.00    -0.249 OA
BRANCH  17  19
ATOM     19  O   UNL     1      37.241  -5.220  25.005  0.00  0.00    -0.467 OA
ATOM     20  C   UNL     1      36.483  -4.749  26.121  0.00  0.00    +0.082 C 
ENDBRANCH  17  19
ENDBRANCH  12  17
ENDBRANCH  11  12
ENDBRANCH   9  11
TORSDOF 5
ENDMDL
MODEL 2
REMARK VINA RESULT:    -6.327      2.998      3.845
REMARK INTER + INTRA:          -8.265
REMARK INTER:                  -7.900
REMARK INTRA:                  -0.365
REMARK UNBOUND:                -0.274
REMARK  Name = 6.sdf
REMARK  6 active torsions:
REMARK  status: ('A' for Active; 'I' for Inactive)
REMARK    1  A    between atoms: C_9  and  C_10
REMARK    2  A    between atoms: C_10  and  C_11
REMARK    3  A    between atoms: C_11  and  C_12
REMARK    4  A    between atoms: C_11  and  N_15
REMARK    5  A    between atoms: C_12  and  O_13
REMARK    6  A    between atoms: O_13  and  C_16
REMARK                            x       y       z     vdW  Elec       q    Type
REMARK                         _______ _______ _______ _____ _____    ______ ____
ROOT
ATOM      1  C   UNL     1      39.322  -7.907  20.714  0.00  0.00    -0.061 A 
ATOM      2  C   UNL     1      38.861  -8.327  19.469  0.00  0.00    -0.060 A 
ATOM      3  C   UNL     1      39.520  -7.945  18.298  0.00  0.00    -0.038 A 
ATOM      4  C   UNL     1      40.663  -7.149  18.423  0.00  0.00    +0.047 A 
ATOM      5  C   UNL     1      41.166  -6.730  19.657  0.00  0.00    +0.003 A 
ATOM      6  C   UNL     1      40.467  -7.109  20.823  0.00  0.00    -0.052 A 
ATOM      7  N   UNL     1      41.494  -6.643  17.453  0.00  0.00    -0.360 N 
ATOM      8  C   UNL     1      42.527  -5.955  18.025  0.00  0.00    +0.006 A 
ATOM      9  C   UNL     1      42.369  -5.990  19.399  0.00  0.00    -0.020 A 
ATOM     10  H   UNL     1      41.364  -6.759  16.484  0.00  0.00    +0.000 HD
ENDROOT
BRANCH   9  11
ATOM     11  C   UNL     1      43.315  -5.410  20.412  0.00  0.00    -0.000 C 
BRANCH  11  12
ATOM     12  C   UNL     1      42.737  -4.248  21.230  0.00  0.00    +0.107 C 
BRANCH  12  13
ATOM     13  N   UNL     1      42.815  -2.984  20.442  0.00  0.00    -0.318 N 
ATOM     14  H   UNL     1      41.889  -2.560  20.388  0.00  0.00    +0.000 HD
ATOM     15  H   UNL     1      43.150  -3.190  19.501  0.00  0.00    +0.000 HD
ATOM     16  H   UNL     1      43.458  -2.338  20.898  0.00  0.00    +0.000 HD
ENDBRANCH  12  13
BRANCH  12  17
ATOM     17  C   UNL     1      43.532  -4.095  22.535  0.00  0.00    +0.324 C 
ATOM     18  O   UNL     1      44.753  -4.161  22.605  0.00  0.00    -0.249 OA
BRANCH  17  19
ATOM     19  O   UNL     1      42.687  -3.874  23.579  0.00  0.00    -0.467 OA
ATOM     20  C   UNL     1      41.401  -4.492  23.500  0.00  0.00    +0.082 C 
ENDBRANCH  17  19
ENDBRANCH  12  17
ENDBRANCH  11  12
ENDBRANCH   9  11
TORSDOF 5
ENDMDL
MODEL 3
REMARK VINA RESULT:    -6.243      3.727      4.947
REMARK INTER + INTRA:          -8.159
REMARK INTER:                  -7.757
REMARK INTRA:                  -0.402
REMARK UNBOUND:                -0.274
REMARK  Name = 6.sdf
REMARK  6 active torsions:
REMARK  status: ('A' for Active; 'I' for Inactive)
REMARK    1  A    between atoms: C_9  and  C_10
REMARK    2  A    between atoms: C_10  and  C_11
REMARK    3  A    between atoms: C_11  and  C_12
REMARK    4  A    between atoms: C_11  and  N_15
REMARK    5  A    between atoms: C_12  and  O_13
REMARK    6  A    between atoms: O_13  and  C_16
REMARK                            x       y       z     vdW  Elec       q    Type
REMARK                         _______ _______ _______ _____ _____    ______ ____
ROOT
ATOM      1  C   UNL     1      38.240  -6.691  21.102  0.00  0.00    -0.061 A 
ATOM      2  C   UNL     1      37.592  -7.758  20.485  0.00  0.00    -0.060 A 
ATOM      3  C   UNL     1      38.143  -8.373  19.358  0.00  0.00    -0.038 A 
ATOM      4  C   UNL     1      39.371  -7.895  18.890  0.00  0.00    +0.047 A 
ATOM      5  C   UNL     1      40.061  -6.843  19.499  0.00  0.00    +0.003 A 
ATOM      6  C   UNL     1      39.469  -6.223  20.621  0.00  0.00    -0.052 A 
ATOM      7  N   UNL     1      40.130  -8.313  17.823  0.00  0.00    -0.360 N 
ATOM      8  C   UNL     1      41.292  -7.595  17.758  0.00  0.00    +0.006 A 
ATOM      9  C   UNL     1      41.296  -6.673  18.788  0.00  0.00    -0.020 A 
ATOM     10  H   UNL     1      39.874  -9.026  17.196  0.00  0.00    +0.000 HD
ENDROOT
BRANCH   9  11
ATOM     11  C   UNL     1      42.413  -5.723  19.119  0.00  0.00    -0.000 C 
BRANCH  11  12
ATOM     12  C   UNL     1      42.463  -4.469  18.238  0.00  0.00    +0.107 C 
BRANCH  12  13
ATOM     13  N   UNL     1      43.737  -4.445  17.462  0.00  0.00    -0.318 N 
ATOM     14  H   UNL     1      43.609  -3.890  16.616  0.00  0.00    +0.000 HD
ATOM     15  H   UNL     1      43.998  -5.397  17.208  0.00  0.00    +0.000 HD
ATOM     16  H   UNL     1      44.474  -4.030  18.031  0.00  0.00    +0.000 HD
ENDBRANCH  12  13
BRANCH  12  17
ATOM     17  C   UNL     1      42.371  -3.217  19.122  0.00  0.00    +0.324 C 
ATOM     18  O   UNL     1      43.216  -2.331  19.146  0.00  0.00    -0.249 OA
BRANCH  17  19
ATOM     19  O   UNL     1      41.225  -3.242  19.857  0.00  0.00    -0.467 OA
ATOM     20  C   UNL     1      41.327  -2.797  21.211  0.00  0.00    +0.082 C 
ENDBRANCH  17  19
ENDBRANCH  12  17
ENDBRANCH  11  12
ENDBRANCH   9  11
TORSDOF 5
ENDMDL
