MODEL 1
REMARK VINA RESULT:    -6.372      0.000      0.000
REMARK INTER + INTRA:          -7.784
REMARK INTER:                  -7.490
REMARK INTRA:                  -0.294
REMARK UNBOUND:                -0.294
REMARK  Name = 7.sdf
REMARK  4 active torsions:
REMARK  status: ('A' for Active; 'I' for Inactive)
REMARK    1  A    between atoms: C_9  and  C_10
REMARK    2  A    between atoms: C_10  and  C_11
REMARK    3  A    between atoms: C_11  and  O_13
REMARK    4  A    between atoms: O_13  and  C_14
REMARK                            x       y       z     vdW  Elec       q    Type
REMARK                         _______ _______ _______ _____ _____    ______ ____
ROOT
ATOM      1  C   UNL     1      38.289  -8.358  19.656  0.00  0.00    -0.061 A 
ATOM      2  C   UNL     1      37.385  -7.630  20.426  0.00  0.00    -0.060 A 
ATOM      3  C   UNL     1      37.788  -6.478  21.106  0.00  0.00    -0.038 A 
ATOM      4  C   UNL     1      39.124  -6.079  20.977  0.00  0.00    +0.047 A 
ATOM      5  C   UNL     1      40.052  -6.776  20.200  0.00  0.00    +0.003 A 
ATOM      6  C   UNL     1      39.621  -7.943  19.535  0.00  0.00    -0.052 A 
ATOM      7  N   UNL     1      39.784  -5.008  21.532  0.00  0.00    -0.360 N 
ATOM      8  C   UNL     1      41.082  -4.977  21.103  0.00  0.00    +0.006 A 
ATOM      9  C   UNL     1      41.293  -6.058  20.267  0.00  0.00    -0.012 A 
ATOM     10  H   UNL     1      39.379  -4.357  22.149  0.00  0.00    +0.000 HD
ENDROOT
BRANCH   9  11
ATOM     11  C   UNL     1      42.562  -6.372  19.537  0.00  0.00    +0.072 C 
BRANCH  11  12
ATOM     12  C   UNL     1      42.536  -6.025  18.063  0.00  0.00    +0.311 C 
ATOM     13  O   UNL     1      42.464  -6.804  17.123  0.00  0.00    -0.250 OA
BRANCH  12  14
ATOM     14  O   UNL     1      42.629  -4.664  17.936  0.00  0.00    -0.468 OA
ATOM     15  C   UNL     1      43.889  -4.106  18.319  0.00  0.00    +0.082 C 
ENDBRANCH  12  14
ENDBRANCH  11  12
ENDBRANCH   9  11
TORSDOF 3
ENDMDL
MODEL 2
REMARK VINA RESULT:    -6.287      2.604      5.251
REMARK INTER + INTRA:          -7.685
REMARK INTER:                  -7.437
REMARK INTRA:                  -0.248
REMARK UNBOUND:                -0.294
REMARK  Name = 7.sdf
REMARK  4 active torsions:
REMARK  status: ('A' for Active; 'I' for Inactive)
REMARK    1  A    between atoms: C_9  and  C_10
REMARK    2  A    between atoms: C_10  and  C_11
REMARK    3  A    between atoms: C_11  and  O_13
REMARK    4  A    between atoms: O_13  and  C_14
REMARK                            x       y       z     vdW  Elec       q    Type
REMARK                         _______ _______ _______ _____ _____    ______ ____
ROOT
ATOM      1  C   UNL     1      43.741  -4.233  20.878  0.00  0.00    -0.061 A 
ATOM      2  C   UNL     1      44.351  -3.926  19.663  0.00  0.00    -0.060 A 
ATOM      3  C   UNL     1      43.767  -4.306  18.452  0.00  0.00    -0.038 A 
ATOM      4  C   UNL     1      42.548  -4.992  18.504  0.00  0.00    +0.047 A 
ATOM      5  C   UNL     1      41.900  -5.300  19.702  0.00  0.00    +0.003 A 
ATOM      6  C   UNL     1      42.519  -4.917  20.911  0.00  0.00    -0.052 A 
ATOM      7  N   UNL     1      41.767  -5.483  17.484  0.00  0.00    -0.360 N 
ATOM      8  C   UNL     1      40.631  -6.053  17.989  0.00  0.00    +0.006 A 
ATOM      9  C   UNL     1      40.670  -5.958  19.368  0.00  0.00    -0.012 A 
ATOM     10  H   UNL     1      41.994  -5.432  16.527  0.00  0.00    +0.000 HD
ENDROOT
BRANCH   9  11
ATOM     11  C   UNL     1      39.598  -6.409  20.312  0.00  0.00    +0.072 C 
BRANCH  11  12
ATOM     12  C   UNL     1      39.752  -7.837  20.794  0.00  0.00    +0.311 C 
ATOM     13  O   UNL     1      40.765  -8.520  20.764  0.00  0.00    -0.250 OA
BRANCH  12  14
ATOM     14  O   UNL     1      38.539  -8.269  21.264  0.00  0.00    -0.468 OA
ATOM     15  C   UNL     1      37.500  -8.336  20.285  0.00  0.00    +0.082 C 
ENDBRANCH  12  14
ENDBRANCH  11  12
ENDBRANCH   9  11
TORSDOF 3
ENDMDL
MODEL 3
REMARK VINA RESULT:    -6.068      2.336      3.246
REMARK INTER + INTRA:          -7.427
REMARK INTER:                  -7.174
REMARK INTRA:                  -0.253
REMARK UNBOUND:                -0.294
REMARK  Name = 7.sdf
REMARK  4 active torsions:
REMARK  status: ('A' for Active; 'I' for Inactive)
REMARK    1  A    between atoms: C_9  and  C_10
REMARK    2  A    between atoms: C_10  and  C_11
REMARK    3  A    between atoms: C_11  and  O_13
REMARK    4  A    between atoms: O_13  and  C_14
REMARK                            x       y       z     vdW  Elec       q    Type
REMARK                         _______ _______ _______ _____ _____    ______ ____
ROOT
ATOM      1  C   UNL     1      39.157  -7.917  20.693  0.00  0.00    -0.061 A 
ATOM      2  C   UNL     1      38.719  -8.366  19.449  0.00  0.00    -0.060 A 
ATOM      3  C   UNL     1      39.410  -8.032  18.282  0.00  0.00    -0.038 A 
ATOM      4  C   UNL     1      40.559  -7.243  18.409  0.00  0.00    +0.047 A 
ATOM      5  C   UNL     1      41.036  -6.790  19.640  0.00  0.00    +0.003 A 
ATOM      6  C   UNL     1      40.311  -7.130  20.802  0.00  0.00    -0.052 A 
ATOM      7  N   UNL     1      41.414  -6.766  17.444  0.00  0.00    -0.360 N 
ATOM      8  C   UNL     1      42.437  -6.065  18.020  0.00  0.00    +0.006 A 
ATOM      9  C   UNL     1      42.244  -6.056  19.390  0.00  0.00    -0.012 A 
ATOM     10  H   UNL     1      41.306  -6.910  16.476  0.00  0.00    +0.000 HD
ENDROOT
BRANCH   9  11
ATOM     11  C   UNL     1      43.159  -5.444  20.404  0.00  0.00    +0.072 C 
BRANCH  11  12
ATOM     12  C   UNL     1      42.482  -4.478  21.354  0.00  0.00    +0.311 C 
ATOM     13  O   UNL     1      42.439  -4.553  22.574  0.00  0.00    -0.250 OA
BRANCH  12  14
ATOM     14  O   UNL     1      41.887  -3.488  20.617  0.00  0.00    -0.468 OA
ATOM     15  C   UNL     1      40.582  -3.107  21.060  0.00  0.00    +0.082 C 
ENDBRANCH  12  14
ENDBRANCH  11  12
ENDBRANCH   9  11
TORSDOF 3
ENDMDL
