MODEL 1
REMARK VINA RESULT:    -8.379      0.000      0.000
REMARK INTER + INTRA:         -10.915
REMARK INTER:                 -10.338
REMARK INTRA:                  -0.577
REMARK UNBOUND:                -0.577
REMARK  Name = 7d.sdf
REMARK  5 active torsions:
REMARK  status: ('A' for Active; 'I' for Inactive)
REMARK    1  A    between atoms: C_9  and  C_10
REMARK    2  A    between atoms: C_10  and  C_11
REMARK    3  A    between atoms: C_11  and  O_20
REMARK    4  A    between atoms: C_12  and  C_13
REMARK    5  A    between atoms: O_20  and  C_22
REMARK                            x       y       z     vdW  Elec       q    Type
REMARK                         _______ _______ _______ _____ _____    ______ ____
ROOT
ATOM      1  C   UNL     1      43.800  -4.788  20.558  0.00  0.00    -0.061 A 
ATOM      2  C   UNL     1      44.200  -4.130  21.715  0.00  0.00    -0.060 A 
ATOM      3  C   UNL     1      43.316  -3.957  22.784  0.00  0.00    -0.037 A 
ATOM      4  C   UNL     1      42.006  -4.457  22.662  0.00  0.00    +0.057 A 
ATOM      5  C   UNL     1      41.588  -5.134  21.507  0.00  0.00    +0.004 A 
ATOM      6  C   UNL     1      42.503  -5.294  20.444  0.00  0.00    -0.052 A 
ATOM      7  N   UNL     1      40.951  -4.484  23.574  0.00  0.00    -0.283 N 
ATOM      8  C   UNL     1      39.863  -5.057  22.940  0.00  0.00    +0.018 A 
ATOM      9  C   UNL     1      40.233  -5.538  21.704  0.00  0.00    -0.011 A 
ATOM     10  C   UNL     1      40.953  -4.038  24.919  0.00  0.00    +0.263 C 
ATOM     11  O   UNL     1      41.772  -3.188  25.257  0.00  0.00    -0.267 OA
ENDROOT
BRANCH  10  12
ATOM     12  C   UNL     1      39.998  -4.563  25.929  0.00  0.00    +0.040 A 
ATOM     13  C   UNL     1      40.362  -5.652  26.734  0.00  0.00    -0.049 A 
ATOM     14  C   UNL     1      39.448  -6.191  27.638  0.00  0.00    -0.061 A 
ATOM     15  C   UNL     1      38.180  -5.626  27.761  0.00  0.00    -0.062 A 
ATOM     16  C   UNL     1      37.832  -4.510  26.996  0.00  0.00    -0.061 A 
ATOM     17  C   UNL     1      38.743  -3.967  26.081  0.00  0.00    -0.049 A 
ENDBRANCH  10  12
BRANCH   9  18
ATOM     18  C   UNL     1      39.355  -6.316  20.772  0.00  0.00    +0.072 C 
BRANCH  18  19
ATOM     19  C   UNL     1      39.521  -7.821  20.921  0.00  0.00    +0.311 C 
ATOM     20  O   UNL     1      40.547  -8.463  20.740  0.00  0.00    -0.250 OA
BRANCH  19  21
ATOM     21  O   UNL     1      38.331  -8.368  21.314  0.00  0.00    -0.468 OA
ATOM     22  C   UNL     1      37.328  -8.351  20.296  0.00  0.00    +0.082 C 
ENDBRANCH  19  21
ENDBRANCH  18  19
ENDBRANCH   9  18
TORSDOF 4
ENDMDL
MODEL 2
REMARK VINA RESULT:    -8.347      2.346      6.638
REMARK INTER + INTRA:         -10.876
REMARK INTER:                 -10.641
REMARK INTRA:                  -0.235
REMARK UNBOUND:                -0.577
REMARK  Name = 7d.sdf
REMARK  5 active torsions:
REMARK  status: ('A' for Active; 'I' for Inactive)
REMARK    1  A    between atoms: C_9  and  C_10
REMARK    2  A    between atoms: C_10  and  C_11
REMARK    3  A    between atoms: C_11  and  O_20
REMARK    4  A    between atoms: C_12  and  C_13
REMARK    5  A    between atoms: O_20  and  C_22
REMARK                            x       y       z     vdW  Elec       q    Type
REMARK                         _______ _______ _______ _____ _____    ______ ____
ROOT
ATOM      1  C   UNL     1      37.730  -8.065  20.393  0.00  0.00    -0.061 A 
ATOM      2  C   UNL     1      38.597  -8.398  19.360  0.00  0.00    -0.060 A 
ATOM      3  C   UNL     1      39.648  -7.548  19.003  0.00  0.00    -0.037 A 
ATOM      4  C   UNL     1      39.807  -6.340  19.708  0.00  0.00    +0.057 A 
ATOM      5  C   UNL     1      38.949  -5.992  20.761  0.00  0.00    +0.004 A 
ATOM      6  C   UNL     1      37.897  -6.871  21.100  0.00  0.00    -0.052 A 
ATOM      7  N   UNL     1      40.783  -5.349  19.613  0.00  0.00    -0.283 N 
ATOM      8  C   UNL     1      40.455  -4.348  20.510  0.00  0.00    +0.018 A 
ATOM      9  C   UNL     1      39.385  -4.739  21.285  0.00  0.00    -0.011 A 
ATOM     10  C   UNL     1      41.930  -5.337  18.780  0.00  0.00    +0.263 C 
ATOM     11  O   UNL     1      41.923  -6.011  17.754  0.00  0.00    -0.267 OA
ENDROOT
BRANCH  10  12
ATOM     12  C   UNL     1      43.138  -4.535  19.109  0.00  0.00    +0.040 A 
ATOM     13  C   UNL     1      43.566  -4.430  20.440  0.00  0.00    -0.049 A 
ATOM     14  C   UNL     1      44.659  -3.628  20.762  0.00  0.00    -0.061 A 
ATOM     15  C   UNL     1      45.344  -2.952  19.755  0.00  0.00    -0.062 A 
ATOM     16  C   UNL     1      44.950  -3.095  18.421  0.00  0.00    -0.061 A 
ATOM     17  C   UNL     1      43.849  -3.894  18.090  0.00  0.00    -0.049 A 
ENDBRANCH  10  12
BRANCH   9  18
ATOM     18  C   UNL     1      38.814  -3.965  22.434  0.00  0.00    +0.072 C 
BRANCH  18  19
ATOM     19  C   UNL     1      39.133  -4.590  23.784  0.00  0.00    +0.311 C 
ATOM     20  O   UNL     1      40.243  -4.732  24.278  0.00  0.00    -0.250 OA
BRANCH  19  21
ATOM     21  O   UNL     1      37.967  -4.964  24.392  0.00  0.00    -0.468 OA
ATOM     22  C   UNL     1      37.870  -4.542  25.754  0.00  0.00    +0.082 C 
ENDBRANCH  19  21
ENDBRANCH  18  19
ENDBRANCH   9  18
TORSDOF 4
ENDMDL
MODEL 3
REMARK VINA RESULT:    -8.314      2.869      4.936
REMARK INTER + INTRA:         -10.835
REMARK INTER:                 -10.189
REMARK INTRA:                  -0.646
REMARK UNBOUND:                -0.577
REMARK  Name = 7d.sdf
REMARK  5 active torsions:
REMARK  status: ('A' for Active; 'I' for Inactive)
REMARK    1  A    between atoms: C_9  and  C_10
REMARK    2  A    between atoms: C_10  and  C_11
REMARK    3  A    between atoms: C_11  and  O_20
REMARK    4  A    between atoms: C_12  and  C_13
REMARK    5  A    between atoms: O_20  and  C_22
REMARK                            x       y       z     vdW  Elec       q    Type
REMARK                         _______ _______ _______ _____ _____    ______ ____
ROOT
ATOM      1  C   UNL     1      38.402  -8.364  19.319  0.00  0.00    -0.061 A 
ATOM      2  C   UNL     1      37.538  -7.860  20.283  0.00  0.00    -0.060 A 
ATOM      3  C   UNL     1      37.967  -6.894  21.197  0.00  0.00    -0.037 A 
ATOM      4  C   UNL     1      39.299  -6.445  21.127  0.00  0.00    +0.057 A 
ATOM      5  C   UNL     1      40.184  -6.934  20.154  0.00  0.00    +0.004 A 
ATOM      6  C   UNL     1      39.721  -7.908  19.243  0.00  0.00    -0.052 A 
ATOM      7  N   UNL     1      39.972  -5.464  21.855  0.00  0.00    -0.283 N 
ATOM      8  C   UNL     1      41.284  -5.441  21.417  0.00  0.00    +0.018 A 
ATOM      9  C   UNL     1      41.434  -6.269  20.326  0.00  0.00    -0.011 A 
ATOM     10  C   UNL     1      39.443  -4.608  22.853  0.00  0.00    +0.263 C 
ATOM     11  O   UNL     1      38.440  -4.964  23.465  0.00  0.00    -0.267 OA
ENDROOT
BRANCH  10  12
ATOM     12  C   UNL     1      40.064  -3.298  23.183  0.00  0.00    +0.040 A 
ATOM     13  C   UNL     1      40.780  -3.147  24.379  0.00  0.00    -0.049 A 
ATOM     14  C   UNL     1      41.310  -1.905  24.725  0.00  0.00    -0.061 A 
ATOM     15  C   UNL     1      41.150  -0.820  23.866  0.00  0.00    -0.062 A 
ATOM     16  C   UNL     1      40.480  -0.980  22.650  0.00  0.00    -0.061 A 
ATOM     17  C   UNL     1      39.940  -2.224  22.298  0.00  0.00    -0.049 A 
ENDBRANCH  10  12
BRANCH   9  18
ATOM     18  C   UNL     1      42.685  -6.423  19.516  0.00  0.00    +0.072 C 
BRANCH  18  19
ATOM     19  C   UNL     1      42.540  -5.889  18.098  0.00  0.00    +0.311 C 
ATOM     20  O   UNL     1      42.428  -6.554  17.077  0.00  0.00    -0.250 OA
BRANCH  19  21
ATOM     21  O   UNL     1      42.534  -4.522  18.131  0.00  0.00    -0.468 OA
ATOM     22  C   UNL     1      43.836  -3.947  18.264  0.00  0.00    +0.082 C 
ENDBRANCH  19  21
ENDBRANCH  18  19
ENDBRANCH   9  18
TORSDOF 4
ENDMDL
