MODEL 1
REMARK VINA RESULT:    -9.895      0.000      0.000
REMARK INTER + INTRA:         -13.875
REMARK INTER:                 -12.787
REMARK INTRA:                  -1.088
REMARK UNBOUND:                -1.088
REMARK  Name = 9a.sdf
REMARK  5 active torsions:
REMARK  status: ('A' for Active; 'I' for Inactive)
REMARK    1  A    between atoms: N_7  and  C_11
REMARK    2  A    between atoms: C_9  and  C_10
REMARK    3  A    between atoms: C_11  and  C_12
REMARK    4  A    between atoms: C_19  and  C_20
REMARK    5  A    between atoms: C_20  and  C_21
REMARK                            x       y       z     vdW  Elec       q    Type
REMARK                         _______ _______ _______ _____ _____    ______ ____
ROOT
ATOM      1  C   UNL     1      37.722  -7.867  20.293  0.00  0.00    -0.061 A 
ATOM      2  C   UNL     1      38.664  -8.358  19.398  0.00  0.00    -0.060 A 
ATOM      3  C   UNL     1      39.962  -7.838  19.362  0.00  0.00    -0.038 A 
ATOM      4  C   UNL     1      40.295  -6.808  20.257  0.00  0.00    +0.050 A 
ATOM      5  C   UNL     1      39.374  -6.326  21.196  0.00  0.00    +0.007 A 
ATOM      6  C   UNL     1      38.066  -6.861  21.200  0.00  0.00    -0.052 A 
ATOM      7  N   UNL     1      41.459  -6.078  20.424  0.00  0.00    -0.342 N 
ATOM      8  C   UNL     1      41.318  -5.209  21.484  0.00  0.00    +0.013 A 
ATOM      9  C   UNL     1      40.039  -5.338  21.983  0.00  0.00    +0.000 A 
ENDROOT
BRANCH   9  10
ATOM     10  C   UNL     1      39.482  -4.626  23.094  0.00  0.00    -0.049 C 
ATOM     11  C   UNL     1      40.124  -4.345  24.237  0.00  0.00    -0.014 C 
BRANCH  11  12
ATOM     12  C   UNL     1      39.423  -3.662  25.358  0.00  0.00    +0.186 C 
ATOM     13  O   UNL     1      39.232  -2.449  25.370  0.00  0.00    -0.287 OA
BRANCH  12  14
ATOM     14  C   UNL     1      38.999  -4.520  26.493  0.00  0.00    +0.022 A 
ATOM     15  C   UNL     1      37.845  -4.177  27.208  0.00  0.00    -0.051 A 
ATOM     16  C   UNL     1      37.451  -4.942  28.307  0.00  0.00    -0.061 A 
ATOM     17  C   UNL     1      38.197  -6.061  28.684  0.00  0.00    -0.062 A 
ATOM     18  C   UNL     1      39.322  -6.426  27.955  0.00  0.00    -0.061 A 
ATOM     19  C   UNL     1      39.721  -5.668  26.854  0.00  0.00    -0.051 A 
ENDBRANCH  12  14
ENDBRANCH  11  12
ENDBRANCH   9  10
BRANCH   7  20
ATOM     20  C   UNL     1      42.635  -6.111  19.554  0.00  0.00    +0.048 C 
BRANCH  20  21
ATOM     21  C   UNL     1      42.980  -4.742  19.026  0.00  0.00    -0.028 A 
ATOM     22  C   UNL     1      44.192  -4.128  19.377  0.00  0.00    -0.056 A 
ATOM     23  C   UNL     1      44.462  -2.814  18.990  0.00  0.00    -0.047 A 
ATOM     24  C   UNL     1      43.528  -2.111  18.235  0.00  0.00    +0.018 A 
ATOM     25  C   UNL     1      42.347  -2.724  17.824  0.00  0.00    -0.047 A 
ATOM     26  C   UNL     1      42.075  -4.037  18.215  0.00  0.00    -0.056 A 
ATOM     27 BR   UNL     1      43.848  -0.299  17.799  0.00  0.00    -0.050 Br
ENDBRANCH  20  21
ENDBRANCH   7  20
TORSDOF 5
ENDMDL
MODEL 2
REMARK VINA RESULT:    -9.277      1.841      2.642
REMARK INTER + INTRA:         -13.077
REMARK INTER:                 -11.949
REMARK INTRA:                  -1.128
REMARK UNBOUND:                -1.088
REMARK  Name = 9a.sdf
REMARK  5 active torsions:
REMARK  status: ('A' for Active; 'I' for Inactive)
REMARK    1  A    between atoms: N_7  and  C_11
REMARK    2  A    between atoms: C_9  and  C_10
REMARK    3  A    between atoms: C_11  and  C_12
REMARK    4  A    between atoms: C_19  and  C_20
REMARK    5  A    between atoms: C_20  and  C_21
REMARK                            x       y       z     vdW  Elec       q    Type
REMARK                         _______ _______ _______ _____ _____    ______ ____
ROOT
ATOM      1  C   UNL     1      38.200  -8.145  19.760  0.00  0.00    -0.061 A 
ATOM      2  C   UNL     1      38.981  -8.402  18.640  0.00  0.00    -0.060 A 
ATOM      3  C   UNL     1      40.251  -7.832  18.500  0.00  0.00    -0.038 A 
ATOM      4  C   UNL     1      40.723  -6.995  19.525  0.00  0.00    +0.050 A 
ATOM      5  C   UNL     1      39.971  -6.755  20.681  0.00  0.00    +0.007 A 
ATOM      6  C   UNL     1      38.686  -7.333  20.788  0.00  0.00    -0.052 A 
ATOM      7  N   UNL     1      41.894  -6.267  19.648  0.00  0.00    -0.342 N 
ATOM      8  C   UNL     1      41.928  -5.641  20.874  0.00  0.00    +0.013 A 
ATOM      9  C   UNL     1      40.753  -5.923  21.538  0.00  0.00    +0.000 A 
ENDROOT
BRANCH   9  10
ATOM     10  C   UNL     1      40.387  -5.478  22.849  0.00  0.00    -0.049 C 
ATOM     11  C   UNL     1      39.398  -4.618  23.131  0.00  0.00    -0.014 C 
BRANCH  11  12
ATOM     12  C   UNL     1      39.153  -4.166  24.527  0.00  0.00    +0.186 C 
ATOM     13  O   UNL     1      38.589  -4.875  25.356  0.00  0.00    -0.287 OA
BRANCH  12  14
ATOM     14  C   UNL     1      39.590  -2.788  24.863  0.00  0.00    +0.022 A 
ATOM     15  C   UNL     1      40.203  -2.011  23.871  0.00  0.00    -0.051 A 
ATOM     16  C   UNL     1      40.664  -0.728  24.174  0.00  0.00    -0.061 A 
ATOM     17  C   UNL     1      40.499  -0.212  25.461  0.00  0.00    -0.062 A 
ATOM     18  C   UNL     1      39.859  -0.965  26.438  0.00  0.00    -0.061 A 
ATOM     19  C   UNL     1      39.394  -2.247  26.142  0.00  0.00    -0.051 A 
ENDBRANCH  12  14
ENDBRANCH  11  12
ENDBRANCH   9  10
BRANCH   7  20
ATOM     20  C   UNL     1      42.906  -6.073  18.610  0.00  0.00    +0.048 C 
BRANCH  20  21
ATOM     21  C   UNL     1      43.134  -4.611  18.316  0.00  0.00    -0.028 A 
ATOM     22  C   UNL     1      44.397  -4.034  18.512  0.00  0.00    -0.056 A 
ATOM     23  C   UNL     1      44.583  -2.659  18.358  0.00  0.00    -0.047 A 
ATOM     24  C   UNL     1      43.508  -1.854  17.990  0.00  0.00    +0.018 A 
ATOM     25  C   UNL     1      42.262  -2.417  17.729  0.00  0.00    -0.047 A 
ATOM     26  C   UNL     1      42.076  -3.793  17.889  0.00  0.00    -0.056 A 
ATOM     27 BR   UNL     1      43.735   0.019  17.882  0.00  0.00    -0.050 Br
ENDBRANCH  20  21
ENDBRANCH   7  20
TORSDOF 5
ENDMDL
