MODEL 1
REMARK VINA RESULT:    -7.570      0.000      0.000
REMARK INTER + INTRA:         -10.175
REMARK INTER:                  -9.341
REMARK INTRA:                  -0.834
REMARK UNBOUND:                -0.834
REMARK  Name = 17a.sdf
REMARK  4 active torsions:
REMARK  status: ('A' for Active; 'I' for Inactive)
REMARK    1  A    between atoms: N_7  and  C_16
REMARK    2  A    between atoms: C_9  and  C_10
REMARK    3  A    between atoms: N_11  and  N_12
REMARK    4  A    between atoms: C_16  and  C_17
REMARK                            x       y       z     vdW  Elec       q    Type
REMARK                         _______ _______ _______ _____ _____    ______ ____
ROOT
ATOM      1  C   UNL     1       0.551 -16.460  50.867  0.00  0.00    -0.061 A 
ATOM      2  C   UNL     1       1.382 -17.510  51.240  0.00  0.00    -0.060 A 
ATOM      3  C   UNL     1       1.133 -18.817  50.808  0.00  0.00    -0.038 A 
ATOM      4  C   UNL     1       0.017 -19.048  49.985  0.00  0.00    +0.050 A 
ATOM      5  C   UNL     1      -0.800 -17.995  49.552  0.00  0.00    +0.009 A 
ATOM      6  C   UNL     1      -0.531 -16.687  50.014  0.00  0.00    -0.052 A 
ATOM      7  N   UNL     1      -0.520 -20.213  49.466  0.00  0.00    -0.342 N 
ATOM      8  C   UNL     1      -1.582 -19.909  48.652  0.00  0.00    +0.015 A 
ATOM      9  C   UNL     1      -1.780 -18.542  48.672  0.00  0.00    +0.020 A 
ENDROOT
BRANCH   9  10
ATOM     10  C   UNL     1      -2.795 -17.827  47.927  0.00  0.00    +0.055 C 
ATOM     11  N   UNL     1      -2.754 -17.840  46.636  0.00  0.00    -0.186 NA
BRANCH  11  12
ATOM     12  N   UNL     1      -3.737 -17.128  46.012  0.00  0.00    -0.191 N 
ATOM     13  C   UNL     1      -4.454 -17.652  44.967  0.00  0.00    +0.317 C 
ATOM     14  O   UNL     1      -5.299 -17.022  44.349  0.00  0.00    -0.251 OA
ATOM     15  N   UNL     1      -4.143 -18.941  44.672  0.00  0.00    -0.312 N 
ATOM     16  H   UNL     1      -3.937 -16.215  46.321  0.00  0.00    +0.000 HD
ATOM     17  H   UNL     1      -3.455 -19.412  45.195  0.00  0.00    +0.000 HD
ATOM     18  H   UNL     1      -4.605 -19.403  43.937  0.00  0.00    +0.000 HD
ENDBRANCH  11  12
ENDBRANCH   9  10
BRANCH   7  19
ATOM     19  C   UNL     1      -0.133 -21.584  49.802  0.00  0.00    +0.048 C 
BRANCH  19  20
ATOM     20  C   UNL     1       0.672 -22.224  48.699  0.00  0.00    -0.028 A 
ATOM     21  C   UNL     1       2.004 -21.843  48.484  0.00  0.00    -0.056 A 
ATOM     22  C   UNL     1       2.706 -22.313  47.373  0.00  0.00    -0.047 A 
ATOM     23  C   UNL     1       2.086 -23.185  46.482  0.00  0.00    +0.018 A 
ATOM     24  C   UNL     1       0.792 -23.638  46.725  0.00  0.00    -0.047 A 
ATOM     25  C   UNL     1       0.087 -23.161  47.832  0.00  0.00    -0.056 A 
ATOM     26 BR   UNL     1       2.991 -23.716  44.911  0.00  0.00    -0.050 Br
ENDBRANCH  19  20
ENDBRANCH   7  19
TORSDOF 4
ENDMDL
