MODEL 1
REMARK VINA RESULT:    -7.573      0.000      0.000
REMARK INTER + INTRA:         -10.153
REMARK INTER:                  -9.344
REMARK INTRA:                  -0.809
REMARK UNBOUND:                -0.809
REMARK  Name = 17c.sdf
REMARK  4 active torsions:
REMARK  status: ('A' for Active; 'I' for Inactive)
REMARK    1  A    between atoms: N_7  and  C_16
REMARK    2  A    between atoms: C_9  and  C_10
REMARK    3  A    between atoms: N_11  and  N_12
REMARK    4  A    between atoms: C_16  and  C_17
REMARK                            x       y       z     vdW  Elec       q    Type
REMARK                         _______ _______ _______ _____ _____    ______ ____
ROOT
ATOM      1  C   UNL     1       0.604 -16.412  50.849  0.00  0.00    -0.061 A 
ATOM      2  C   UNL     1       1.415 -17.468  51.247  0.00  0.00    -0.060 A 
ATOM      3  C   UNL     1       1.172 -18.775  50.803  0.00  0.00    -0.038 A 
ATOM      4  C   UNL     1       0.064 -19.007  49.967  0.00  0.00    +0.050 A 
ATOM      5  C   UNL     1      -0.732 -17.945  49.511  0.00  0.00    +0.009 A 
ATOM      6  C   UNL     1      -0.452 -16.635  49.962  0.00  0.00    -0.052 A 
ATOM      7  N   UNL     1      -0.486 -20.174  49.456  0.00  0.00    -0.342 N 
ATOM      8  C   UNL     1      -1.535 -19.856  48.626  0.00  0.00    +0.015 A 
ATOM      9  C   UNL     1      -1.709 -18.486  48.620  0.00  0.00    +0.020 A 
ENDROOT
BRANCH   9  10
ATOM     10  C   UNL     1      -2.701 -17.760  47.853  0.00  0.00    +0.055 C 
ATOM     11  N   UNL     1      -2.799 -17.983  46.582  0.00  0.00    -0.186 NA
BRANCH  11  12
ATOM     12  N   UNL     1      -3.731 -17.234  45.917  0.00  0.00    -0.191 N 
ATOM     13  C   UNL     1      -4.439 -17.743  44.849  0.00  0.00    +0.317 C 
ATOM     14  O   UNL     1      -5.292 -17.111  44.260  0.00  0.00    -0.251 OA
ATOM     15  N   UNL     1      -4.084 -19.003  44.515  0.00  0.00    -0.312 N 
ATOM     16  H   UNL     1      -3.901 -16.310  46.210  0.00  0.00    +0.000 HD
ATOM     17  H   UNL     1      -3.386 -19.471  45.028  0.00  0.00    +0.000 HD
ATOM     18  H   UNL     1      -4.525 -19.454  43.759  0.00  0.00    +0.000 HD
ENDBRANCH  11  12
ENDBRANCH   9  10
BRANCH   7  19
ATOM     19  C   UNL     1      -0.154 -21.555  49.824  0.00  0.00    +0.048 C 
BRANCH  19  20
ATOM     20  C   UNL     1       0.607 -22.268  48.734  0.00  0.00    -0.028 A 
ATOM     21  C   UNL     1       1.957 -21.965  48.504  0.00  0.00    -0.055 A 
ATOM     22  C   UNL     1       2.608 -22.451  47.368  0.00  0.00    -0.043 A 
ATOM     23  C   UNL     1       1.925 -23.276  46.479  0.00  0.00    +0.041 A 
ATOM     24  C   UNL     1       0.623 -23.683  46.756  0.00  0.00    -0.043 A 
ATOM     25  C   UNL     1      -0.035 -23.183  47.883  0.00  0.00    -0.055 A 
ATOM     26 CL   UNL     1       2.675 -23.745  45.004  0.00  0.00    -0.084 Cl
ENDBRANCH  19  20
ENDBRANCH   7  19
TORSDOF 4
ENDMDL
