REMARK VINA RESULT:    -7.737      3.734      5.945
REMARK INTER + INTRA:          -9.864
REMARK INTER:                  -9.182
REMARK INTRA:                  -0.682
REMARK UNBOUND:                -0.318
REMARK  Name = 17a.sdf
REMARK  4 active torsions:
REMARK  status: ('A' for Active; 'I' for Inactive)
REMARK    1  A    between atoms: N_7  and  C_16
REMARK    2  A    between atoms: C_9  and  C_10
REMARK    3  A    between atoms: N_11  and  N_12
REMARK    4  A    between atoms: C_16  and  C_17
REMARK                            x       y       z     vdW  Elec       q    Type
REMARK                         _______ _______ _______ _____ _____    ______ ____
ROOT
ATOM      1  C   UNL     1      18.199  -6.657 -14.641  0.00  0.00    -0.061 A 
ATOM      2  C   UNL     1      18.931  -6.168 -15.716  0.00  0.00    -0.060 A 
ATOM      3  C   UNL     1      18.312  -5.866 -16.934  0.00  0.00    -0.038 A 
ATOM      4  C   UNL     1      16.925  -6.072 -17.048  0.00  0.00    +0.050 A 
ATOM      5  C   UNL     1      16.161  -6.510 -15.958  0.00  0.00    +0.009 A 
ATOM      6  C   UNL     1      16.816  -6.818 -14.744  0.00  0.00    -0.052 A 
ATOM      7  N   UNL     1      16.059  -5.936 -18.119  0.00  0.00    -0.342 N 
ATOM      8  C   UNL     1      14.774  -6.185 -17.706  0.00  0.00    +0.015 A 
ATOM      9  C   UNL     1      14.796  -6.534 -16.370  0.00  0.00    +0.020 A 
ENDROOT
BRANCH   9  10
ATOM     10  C   UNL     1      13.637  -6.854 -15.563  0.00  0.00    +0.055 C 
ATOM     11  N   UNL     1      12.457  -6.720 -16.075  0.00  0.00    -0.186 NA
BRANCH  11  12
ATOM     12  N   UNL     1      11.420  -7.027 -15.244  0.00  0.00    -0.191 N 
ATOM     13  C   UNL     1      10.172  -7.328 -15.727  0.00  0.00    +0.317 C 
ATOM     14  O   UNL     1       9.209  -7.549 -15.010  0.00  0.00    -0.251 OA
ATOM     15  N   UNL     1      10.097  -7.357 -17.083  0.00  0.00    -0.312 N 
ATOM     16  H   UNL     1      11.572  -7.034 -14.271  0.00  0.00    +0.000 HD
ATOM     17  H   UNL     1      10.897  -7.172 -17.625  0.00  0.00    +0.000 HD
ATOM     18  H   UNL     1       9.241  -7.564 -17.524  0.00  0.00    +0.000 HD
ENDBRANCH  11  12
ENDBRANCH   9  10
BRANCH   7  19
ATOM     19  C   UNL     1      16.421  -5.695 -19.516  0.00  0.00    +0.048 C 
BRANCH  19  20
ATOM     20  C   UNL     1      16.342  -4.231 -19.869  0.00  0.00    -0.028 A 
ATOM     21  C   UNL     1      15.695  -3.821 -21.044  0.00  0.00    -0.056 A 
ATOM     22  C   UNL     1      15.751  -2.490 -21.457  0.00  0.00    -0.047 A 
ATOM     23  C   UNL     1      16.438  -1.555 -20.686  0.00  0.00    +0.018 A 
ATOM     24  C   UNL     1      17.017  -1.929 -19.476  0.00  0.00    -0.047 A 
ATOM     25  C   UNL     1      16.967  -3.263 -19.066  0.00  0.00    -0.056 A 
ATOM     26 BR   UNL     1      16.626   0.218 -21.311  0.00  0.00    -0.050 Br
ENDBRANCH  19  20
ENDBRANCH   7  19
TORSDOF 4
