REMARK VINA RESULT:    -7.650      3.351      5.500
REMARK INTER + INTRA:          -9.758
REMARK INTER:                  -9.134
REMARK INTRA:                  -0.623
REMARK UNBOUND:                -0.318
REMARK  Name = 17a.sdf
REMARK  4 active torsions:
REMARK  status: ('A' for Active; 'I' for Inactive)
REMARK    1  A    between atoms: N_7  and  C_16
REMARK    2  A    between atoms: C_9  and  C_10
REMARK    3  A    between atoms: N_11  and  N_12
REMARK    4  A    between atoms: C_16  and  C_17
REMARK                            x       y       z     vdW  Elec       q    Type
REMARK                         _______ _______ _______ _____ _____    ______ ____
ROOT
ATOM      1  C   UNL     1      15.354  -8.811 -12.766  0.00  0.00    -0.061 A 
ATOM      2  C   UNL     1      16.683  -8.509 -13.039  0.00  0.00    -0.060 A 
ATOM      3  C   UNL     1      17.024  -7.463 -13.904  0.00  0.00    -0.038 A 
ATOM      4  C   UNL     1      15.987  -6.720 -14.495  0.00  0.00    +0.050 A 
ATOM      5  C   UNL     1      14.643  -6.971 -14.188  0.00  0.00    +0.009 A 
ATOM      6  C   UNL     1      14.329  -8.042 -13.321  0.00  0.00    -0.052 A 
ATOM      7  N   UNL     1      16.002  -5.695 -15.425  0.00  0.00    -0.342 N 
ATOM      8  C   UNL     1      14.724  -5.242 -15.633  0.00  0.00    +0.015 A 
ATOM      9  C   UNL     1      13.854  -6.002 -14.876  0.00  0.00    +0.020 A 
ENDROOT
BRANCH   9  10
ATOM     10  C   UNL     1      12.419  -5.824 -14.808  0.00  0.00    +0.055 C 
ATOM     11  N   UNL     1      11.817  -5.197 -15.765  0.00  0.00    -0.186 NA
BRANCH  11  12
ATOM     12  N   UNL     1      10.468  -5.058 -15.615  0.00  0.00    -0.191 N 
ATOM     13  C   UNL     1       9.673  -4.598 -16.634  0.00  0.00    +0.317 C 
ATOM     14  O   UNL     1       8.472  -4.407 -16.515  0.00  0.00    -0.251 OA
ATOM     15  N   UNL     1      10.338  -4.368 -17.795  0.00  0.00    -0.312 N 
ATOM     16  H   UNL     1      10.054  -5.296 -14.754  0.00  0.00    +0.000 HD
ATOM     17  H   UNL     1      11.307  -4.534 -17.848  0.00  0.00    +0.000 HD
ATOM     18  H   UNL     1       9.852  -4.035 -18.583  0.00  0.00    +0.000 HD
ENDBRANCH  11  12
ENDBRANCH   9  10
BRANCH   7  19
ATOM     19  C   UNL     1      17.156  -5.221 -16.190  0.00  0.00    +0.048 C 
BRANCH  19  20
ATOM     20  C   UNL     1      16.814  -5.010 -17.644  0.00  0.00    -0.028 A 
ATOM     21  C   UNL     1      16.969  -3.745 -18.230  0.00  0.00    -0.056 A 
ATOM     22  C   UNL     1      16.511  -3.503 -19.525  0.00  0.00    -0.047 A 
ATOM     23  C   UNL     1      15.913  -4.531 -20.251  0.00  0.00    +0.018 A 
ATOM     24  C   UNL     1      15.825  -5.813 -19.714  0.00  0.00    -0.047 A 
ATOM     25  C   UNL     1      16.277  -6.054 -18.415  0.00  0.00    -0.056 A 
ATOM     26 BR   UNL     1      15.175  -4.169 -21.952  0.00  0.00    -0.050 Br
ENDBRANCH  19  20
ENDBRANCH   7  19
TORSDOF 4
