REMARK VINA RESULT:    -6.990      0.000      0.000
REMARK INTER + INTRA:          -8.847
REMARK INTER:                  -8.215
REMARK INTRA:                  -0.632
REMARK UNBOUND:                -0.632
REMARK  Name = 1c.sdf
REMARK  3 active torsions:
REMARK  status: ('A' for Active; 'I' for Inactive)
REMARK    1  A    between atoms: N_7  and  C_12
REMARK    2  A    between atoms: C_9  and  C_10
REMARK    3  A    between atoms: C_12  and  C_13
REMARK                            x       y       z     vdW  Elec       q    Type
REMARK                         _______ _______ _______ _____ _____    ______ ____
ROOT
ATOM      1  C   UNL     1      17.742  -5.974 -15.496  0.00  0.00    -0.061 A 
ATOM      2  C   UNL     1      16.925  -6.155 -16.608  0.00  0.00    -0.060 A 
ATOM      3  C   UNL     1      15.550  -6.397 -16.471  0.00  0.00    -0.038 A 
ATOM      4  C   UNL     1      15.008  -6.488 -15.177  0.00  0.00    +0.050 A 
ATOM      5  C   UNL     1      15.805  -6.246 -14.046  0.00  0.00    +0.010 A 
ATOM      6  C   UNL     1      17.185  -5.992 -14.215  0.00  0.00    -0.052 A 
ATOM      7  N   UNL     1      13.739  -6.813 -14.712  0.00  0.00    -0.342 N 
ATOM      8  C   UNL     1      13.706  -6.674 -13.344  0.00  0.00    +0.016 A 
ATOM      9  C   UNL     1      14.964  -6.318 -12.904  0.00  0.00    +0.039 A 
ENDROOT
BRANCH   9  10
ATOM     10  C   UNL     1      15.330  -6.083 -11.517  0.00  0.00    +0.152 C 
ATOM     11  O   UNL     1      14.606  -6.349 -10.567  0.00  0.00    -0.296 OA
ENDBRANCH   9  10
BRANCH   7  12
ATOM     12  C   UNL     1      12.621  -7.385 -15.470  0.00  0.00    +0.048 C 
BRANCH  12  13
ATOM     13  C   UNL     1      11.824  -6.329 -16.199  0.00  0.00    -0.028 A 
ATOM     14  C   UNL     1      11.981  -6.164 -17.581  0.00  0.00    -0.055 A 
ATOM     15  C   UNL     1      11.424  -5.061 -18.231  0.00  0.00    -0.043 A 
ATOM     16  C   UNL     1      10.672  -4.139 -17.507  0.00  0.00    +0.041 A 
ATOM     17  C   UNL     1      10.407  -4.352 -16.156  0.00  0.00    -0.043 A 
ATOM     18  C   UNL     1      10.980  -5.448 -15.503  0.00  0.00    -0.055 A 
ATOM     19 CL   UNL     1      10.120  -2.701 -18.272  0.00  0.00    -0.084 Cl
ENDBRANCH  12  13
ENDBRANCH   7  12
TORSDOF 3
