MODEL 1
REMARK VINA RESULT:    -7.990      0.000      0.000
REMARK INTER + INTRA:         -10.825
REMARK INTER:                 -10.325
REMARK INTRA:                  -0.499
REMARK UNBOUND:                -0.499
REMARK  Name = 8a.sdf
REMARK  5 active torsions:
REMARK  status: ('A' for Active; 'I' for Inactive)
REMARK    1  A    between atoms: N_7  and  C_12
REMARK    2  A    between atoms: C_9  and  C_10
REMARK    3  A    between atoms: N_11  and  N_20
REMARK    4  A    between atoms: C_12  and  C_13
REMARK    5  A    between atoms: C_21  and  C_23
REMARK                            x       y       z     vdW  Elec       q    Type
REMARK                         _______ _______ _______ _____ _____    ______ ____
ROOT
ATOM      1  C   UNL     1      19.773  -6.543 -15.279  0.00  0.00    -0.061 A 
ATOM      2  C   UNL     1      19.150  -7.359 -14.341  0.00  0.00    -0.060 A 
ATOM      3  C   UNL     1      17.758  -7.480 -14.306  0.00  0.00    -0.038 A 
ATOM      4  C   UNL     1      17.000  -6.766 -15.250  0.00  0.00    +0.050 A 
ATOM      5  C   UNL     1      17.609  -5.974 -16.232  0.00  0.00    +0.009 A 
ATOM      6  C   UNL     1      19.017  -5.855 -16.230  0.00  0.00    -0.052 A 
ATOM      7  N   UNL     1      15.635  -6.651 -15.431  0.00  0.00    -0.342 N 
ATOM      8  C   UNL     1      15.376  -5.881 -16.537  0.00  0.00    +0.015 A 
ATOM      9  C   UNL     1      16.574  -5.447 -17.068  0.00  0.00    +0.020 A 
ENDROOT
BRANCH   9  10
ATOM     10  C   UNL     1      16.735  -4.624 -18.244  0.00  0.00    +0.055 C 
ATOM     11  N   UNL     1      15.901  -4.734 -19.229  0.00  0.00    -0.187 NA
BRANCH  11  12
ATOM     12  N   UNL     1      16.133  -3.923 -20.304  0.00  0.00    -0.203 N 
ATOM     13  C   UNL     1      15.362  -4.069 -21.449  0.00  0.00    +0.263 C 
ATOM     14  O   UNL     1      14.453  -4.876 -21.595  0.00  0.00    -0.268 OA
ATOM     15  H   UNL     1      16.842  -3.240 -20.266  0.00  0.00    +0.000 HD
BRANCH  13  16
ATOM     16  C   UNL     1      15.676  -3.122 -22.560  0.00  0.00    +0.038 A 
ATOM     17  C   UNL     1      15.551  -3.473 -23.910  0.00  0.00    -0.049 A 
ATOM     18  C   UNL     1      15.861  -2.542 -24.907  0.00  0.00    -0.047 A 
ATOM     19  C   UNL     1      16.284  -1.259 -24.553  0.00  0.00    +0.018 A 
ATOM     20  C   UNL     1      16.389  -0.892 -23.215  0.00  0.00    -0.047 A 
ATOM     21  C   UNL     1      16.079  -1.822 -22.218  0.00  0.00    -0.049 A 
ATOM     22 BR   UNL     1      16.705  -0.008 -25.905  0.00  0.00    -0.050 Br
ENDBRANCH  13  16
ENDBRANCH  11  12
ENDBRANCH   9  10
BRANCH   7  23
ATOM     23  C   UNL     1      14.598  -7.165 -14.537  0.00  0.00    +0.048 C 
BRANCH  23  24
ATOM     24  C   UNL     1      13.228  -6.666 -14.924  0.00  0.00    -0.028 A 
ATOM     25  C   UNL     1      12.315  -7.512 -15.571  0.00  0.00    -0.056 A 
ATOM     26  C   UNL     1      11.090  -7.021 -16.025  0.00  0.00    -0.047 A 
ATOM     27  C   UNL     1      10.764  -5.682 -15.821  0.00  0.00    +0.018 A 
ATOM     28  C   UNL     1      11.635  -4.840 -15.134  0.00  0.00    -0.047 A 
ATOM     29  C   UNL     1      12.863  -5.331 -14.686  0.00  0.00    -0.056 A 
ATOM     30 BR   UNL     1       9.143  -4.998 -16.512  0.00  0.00    -0.050 Br
ENDBRANCH  23  24
ENDBRANCH   7  23
TORSDOF 5
ENDMDL
MODEL 2
REMARK VINA RESULT:    -7.329      2.836      5.013
REMARK INTER + INTRA:          -9.970
REMARK INTER:                  -9.078
REMARK INTRA:                  -0.892
REMARK UNBOUND:                -0.499
REMARK  Name = 8a.sdf
REMARK  5 active torsions:
REMARK  status: ('A' for Active; 'I' for Inactive)
REMARK    1  A    between atoms: N_7  and  C_12
REMARK    2  A    between atoms: C_9  and  C_10
REMARK    3  A    between atoms: N_11  and  N_20
REMARK    4  A    between atoms: C_12  and  C_13
REMARK    5  A    between atoms: C_21  and  C_23
REMARK                            x       y       z     vdW  Elec       q    Type
REMARK                         _______ _______ _______ _____ _____    ______ ____
ROOT
ATOM      1  C   UNL     1       9.915  -4.534 -19.676  0.00  0.00    -0.061 A 
ATOM      2  C   UNL     1       9.712  -5.380 -18.592  0.00  0.00    -0.060 A 
ATOM      3  C   UNL     1      10.769  -6.113 -18.045  0.00  0.00    -0.038 A 
ATOM      4  C   UNL     1      12.047  -5.966 -18.610  0.00  0.00    +0.050 A 
ATOM      5  C   UNL     1      12.283  -5.086 -19.673  0.00  0.00    +0.009 A 
ATOM      6  C   UNL     1      11.192  -4.373 -20.218  0.00  0.00    -0.052 A 
ATOM      7  N   UNL     1      13.251  -6.580 -18.321  0.00  0.00    -0.342 N 
ATOM      8  C   UNL     1      14.242  -6.056 -19.113  0.00  0.00    +0.015 A 
ATOM      9  C   UNL     1      13.685  -5.119 -19.961  0.00  0.00    +0.020 A 
ENDROOT
BRANCH   9  10
ATOM     10  C   UNL     1      14.394  -4.330 -20.941  0.00  0.00    +0.055 C 
ATOM     11  N   UNL     1      15.394  -3.591 -20.576  0.00  0.00    -0.187 NA
BRANCH  11  12
ATOM     12  N   UNL     1      16.001  -2.873 -21.567  0.00  0.00    -0.203 N 
ATOM     13  C   UNL     1      16.540  -1.627 -21.275  0.00  0.00    +0.263 C 
ATOM     14  O   UNL     1      16.535  -1.092 -20.175  0.00  0.00    -0.268 OA
ATOM     15  H   UNL     1      16.056  -3.236 -22.480  0.00  0.00    +0.000 HD
BRANCH  13  16
ATOM     16  C   UNL     1      17.203  -0.931 -22.417  0.00  0.00    +0.038 A 
ATOM     17  C   UNL     1      16.776  -1.078 -23.743  0.00  0.00    -0.049 A 
ATOM     18  C   UNL     1      17.439  -0.401 -24.772  0.00  0.00    -0.047 A 
ATOM     19  C   UNL     1      18.520   0.431 -24.473  0.00  0.00    +0.018 A 
ATOM     20  C   UNL     1      18.938   0.603 -23.158  0.00  0.00    -0.047 A 
ATOM     21  C   UNL     1      18.275  -0.073 -22.128  0.00  0.00    -0.049 A 
ATOM     22 BR   UNL     1      19.413   1.339 -25.869  0.00  0.00    -0.050 Br
ENDBRANCH  13  16
ENDBRANCH  11  12
ENDBRANCH   9  10
BRANCH   7  23
ATOM     23  C   UNL     1      13.454  -7.697 -17.399  0.00  0.00    +0.048 C 
BRANCH  23  24
ATOM     24  C   UNL     1      13.807  -7.221 -16.012  0.00  0.00    -0.028 A 
ATOM     25  C   UNL     1      15.117  -6.823 -15.706  0.00  0.00    -0.056 A 
ATOM     26  C   UNL     1      15.468  -6.485 -14.398  0.00  0.00    -0.047 A 
ATOM     27  C   UNL     1      14.508  -6.531 -13.390  0.00  0.00    +0.018 A 
ATOM     28  C   UNL     1      13.190  -6.873 -13.686  0.00  0.00    -0.047 A 
ATOM     29  C   UNL     1      12.841  -7.217 -14.993  0.00  0.00    -0.056 A 
ATOM     30 BR   UNL     1      15.005  -6.157 -11.605  0.00  0.00    -0.050 Br
ENDBRANCH  23  24
ENDBRANCH   7  23
TORSDOF 5
ENDMDL
MODEL 3
REMARK VINA RESULT:    -7.015      2.777     10.146
REMARK INTER + INTRA:          -9.565
REMARK INTER:                  -8.702
REMARK INTRA:                  -0.863
REMARK UNBOUND:                -0.499
REMARK  Name = 8a.sdf
REMARK  5 active torsions:
REMARK  status: ('A' for Active; 'I' for Inactive)
REMARK    1  A    between atoms: N_7  and  C_12
REMARK    2  A    between atoms: C_9  and  C_10
REMARK    3  A    between atoms: N_11  and  N_20
REMARK    4  A    between atoms: C_12  and  C_13
REMARK    5  A    between atoms: C_21  and  C_23
REMARK                            x       y       z     vdW  Elec       q    Type
REMARK                         _______ _______ _______ _____ _____    ______ ____
ROOT
ATOM      1  C   UNL     1      11.277  -3.191 -23.919  0.00  0.00    -0.061 A 
ATOM      2  C   UNL     1      11.782  -2.777 -25.146  0.00  0.00    -0.060 A 
ATOM      3  C   UNL     1      13.160  -2.682 -25.361  0.00  0.00    -0.038 A 
ATOM      4  C   UNL     1      14.026  -3.026 -24.309  0.00  0.00    +0.050 A 
ATOM      5  C   UNL     1      13.540  -3.489 -23.080  0.00  0.00    +0.009 A 
ATOM      6  C   UNL     1      12.142  -3.556 -22.885  0.00  0.00    -0.052 A 
ATOM      7  N   UNL     1      15.404  -2.990 -24.209  0.00  0.00    -0.342 N 
ATOM      8  C   UNL     1      15.795  -3.488 -22.990  0.00  0.00    +0.015 A 
ATOM      9  C   UNL     1      14.668  -3.816 -22.262  0.00  0.00    +0.020 A 
ENDROOT
BRANCH   9  10
ATOM     10  C   UNL     1      14.650  -4.385 -20.935  0.00  0.00    +0.055 C 
ATOM     11  N   UNL     1      15.695  -4.289 -20.175  0.00  0.00    -0.187 NA
BRANCH  11  12
ATOM     12  N   UNL     1      15.591  -4.862 -18.939  0.00  0.00    -0.203 N 
ATOM     13  C   UNL     1      16.745  -5.209 -18.249  0.00  0.00    +0.263 C 
ATOM     14  O   UNL     1      17.889  -5.036 -18.646  0.00  0.00    -0.268 OA
ATOM     15  H   UNL     1      14.706  -5.028 -18.542  0.00  0.00    +0.000 HD
BRANCH  13  16
ATOM     16  C   UNL     1      16.529  -5.806 -16.898  0.00  0.00    +0.038 A 
ATOM     17  C   UNL     1      17.550  -5.906 -15.944  0.00  0.00    -0.049 A 
ATOM     18  C   UNL     1      17.288  -6.477 -14.694  0.00  0.00    -0.047 A 
ATOM     19  C   UNL     1      16.004  -6.936 -14.395  0.00  0.00    +0.018 A 
ATOM     20  C   UNL     1      14.976  -6.821 -15.326  0.00  0.00    -0.047 A 
ATOM     21  C   UNL     1      15.238  -6.250 -16.576  0.00  0.00    -0.049 A 
ATOM     22 BR   UNL     1      15.657  -7.711 -12.707  0.00  0.00    -0.050 Br
ENDBRANCH  13  16
ENDBRANCH  11  12
ENDBRANCH   9  10
BRANCH   7  23
ATOM     23  C   UNL     1      16.328  -2.414 -25.185  0.00  0.00    +0.048 C 
BRANCH  23  24
ATOM     24  C   UNL     1      17.150  -1.299 -24.588  0.00  0.00    -0.028 A 
ATOM     25  C   UNL     1      18.549  -1.307 -24.695  0.00  0.00    -0.056 A 
ATOM     26  C   UNL     1      19.315  -0.333 -24.051  0.00  0.00    -0.047 A 
ATOM     27  C   UNL     1      18.686   0.662 -23.308  0.00  0.00    +0.018 A 
ATOM     28  C   UNL     1      17.295   0.717 -23.235  0.00  0.00    -0.047 A 
ATOM     29  C   UNL     1      16.530  -0.261 -23.874  0.00  0.00    -0.056 A 
ATOM     30 BR   UNL     1      19.727   1.928 -22.367  0.00  0.00    -0.050 Br
ENDBRANCH  23  24
ENDBRANCH   7  23
TORSDOF 5
ENDMDL
