REMARK VINA RESULT:    -7.990      0.000      0.000
REMARK INTER + INTRA:         -10.825
REMARK INTER:                 -10.325
REMARK INTRA:                  -0.499
REMARK UNBOUND:                -0.499
REMARK  Name = 8a.sdf
REMARK  5 active torsions:
REMARK  status: ('A' for Active; 'I' for Inactive)
REMARK    1  A    between atoms: N_7  and  C_12
REMARK    2  A    between atoms: C_9  and  C_10
REMARK    3  A    between atoms: N_11  and  N_20
REMARK    4  A    between atoms: C_12  and  C_13
REMARK    5  A    between atoms: C_21  and  C_23
REMARK                            x       y       z     vdW  Elec       q    Type
REMARK                         _______ _______ _______ _____ _____    ______ ____
ROOT
ATOM      1  C   UNL     1      19.773  -6.543 -15.279  0.00  0.00    -0.061 A 
ATOM      2  C   UNL     1      19.150  -7.359 -14.341  0.00  0.00    -0.060 A 
ATOM      3  C   UNL     1      17.758  -7.480 -14.306  0.00  0.00    -0.038 A 
ATOM      4  C   UNL     1      17.000  -6.766 -15.250  0.00  0.00    +0.050 A 
ATOM      5  C   UNL     1      17.609  -5.974 -16.232  0.00  0.00    +0.009 A 
ATOM      6  C   UNL     1      19.017  -5.855 -16.230  0.00  0.00    -0.052 A 
ATOM      7  N   UNL     1      15.635  -6.651 -15.431  0.00  0.00    -0.342 N 
ATOM      8  C   UNL     1      15.376  -5.881 -16.537  0.00  0.00    +0.015 A 
ATOM      9  C   UNL     1      16.574  -5.447 -17.068  0.00  0.00    +0.020 A 
ENDROOT
BRANCH   9  10
ATOM     10  C   UNL     1      16.735  -4.624 -18.244  0.00  0.00    +0.055 C 
ATOM     11  N   UNL     1      15.901  -4.734 -19.229  0.00  0.00    -0.187 NA
BRANCH  11  12
ATOM     12  N   UNL     1      16.133  -3.923 -20.304  0.00  0.00    -0.203 N 
ATOM     13  C   UNL     1      15.362  -4.069 -21.449  0.00  0.00    +0.263 C 
ATOM     14  O   UNL     1      14.453  -4.876 -21.595  0.00  0.00    -0.268 OA
ATOM     15  H   UNL     1      16.842  -3.240 -20.266  0.00  0.00    +0.000 HD
BRANCH  13  16
ATOM     16  C   UNL     1      15.676  -3.122 -22.560  0.00  0.00    +0.038 A 
ATOM     17  C   UNL     1      15.551  -3.473 -23.910  0.00  0.00    -0.049 A 
ATOM     18  C   UNL     1      15.861  -2.542 -24.907  0.00  0.00    -0.047 A 
ATOM     19  C   UNL     1      16.284  -1.259 -24.553  0.00  0.00    +0.018 A 
ATOM     20  C   UNL     1      16.389  -0.892 -23.215  0.00  0.00    -0.047 A 
ATOM     21  C   UNL     1      16.079  -1.822 -22.218  0.00  0.00    -0.049 A 
ATOM     22 BR   UNL     1      16.705  -0.008 -25.905  0.00  0.00    -0.050 Br
ENDBRANCH  13  16
ENDBRANCH  11  12
ENDBRANCH   9  10
BRANCH   7  23
ATOM     23  C   UNL     1      14.598  -7.165 -14.537  0.00  0.00    +0.048 C 
BRANCH  23  24
ATOM     24  C   UNL     1      13.228  -6.666 -14.924  0.00  0.00    -0.028 A 
ATOM     25  C   UNL     1      12.315  -7.512 -15.571  0.00  0.00    -0.056 A 
ATOM     26  C   UNL     1      11.090  -7.021 -16.025  0.00  0.00    -0.047 A 
ATOM     27  C   UNL     1      10.764  -5.682 -15.821  0.00  0.00    +0.018 A 
ATOM     28  C   UNL     1      11.635  -4.840 -15.134  0.00  0.00    -0.047 A 
ATOM     29  C   UNL     1      12.863  -5.331 -14.686  0.00  0.00    -0.056 A 
ATOM     30 BR   UNL     1       9.143  -4.998 -16.512  0.00  0.00    -0.050 Br
ENDBRANCH  23  24
ENDBRANCH   7  23
TORSDOF 5
