MODEL 1
REMARK VINA RESULT:    -8.295      0.000      0.000
REMARK INTER + INTRA:          -9.632
REMARK INTER:                  -9.265
REMARK INTRA:                  -0.367
REMARK UNBOUND:                -0.367
REMARK  Name = 0b.sdf
REMARK  2 active torsions:
REMARK  status: ('A' for Active; 'I' for Inactive)
REMARK    1  A    between atoms: N_7  and  C_10
REMARK    2  A    between atoms: C_10  and  C_11
REMARK                            x       y       z     vdW  Elec       q    Type
REMARK                         _______ _______ _______ _____ _____    ______ ____
ROOT
ATOM      1  C   UNL     1      69.462  85.518  35.028  0.00  0.00    -0.061 A 
ATOM      2  C   UNL     1      69.898  85.405  33.712  0.00  0.00    -0.060 A 
ATOM      3  C   UNL     1      70.788  84.396  33.330  0.00  0.00    -0.038 A 
ATOM      4  C   UNL     1      71.228  83.491  34.311  0.00  0.00    +0.049 A 
ATOM      5  C   UNL     1      70.778  83.572  35.635  0.00  0.00    -0.000 A 
ATOM      6  C   UNL     1      69.892  84.606  35.997  0.00  0.00    -0.053 A 
ATOM      7  N   UNL     1      72.113  82.430  34.254  0.00  0.00    -0.342 N 
ATOM      8  C   UNL     1      72.191  81.818  35.484  0.00  0.00    +0.006 A 
ATOM      9  C   UNL     1      71.379  82.506  36.354  0.00  0.00    -0.036 A 
ENDROOT
BRANCH   7  10
ATOM     10  C   UNL     1      72.961  82.079  33.120  0.00  0.00    +0.048 C 
BRANCH  10  11
ATOM     11  C   UNL     1      72.958  80.601  32.834  0.00  0.00    -0.025 A 
ATOM     12  C   UNL     1      71.768  79.928  32.545  0.00  0.00    -0.039 A 
ATOM     13  C   UNL     1      71.814  78.567  32.293  0.00  0.00    +0.028 A 
ATOM     14  N   UNL     1      72.951  77.841  32.301  0.00  0.00    -0.263 NA
ATOM     15  C   UNL     1      74.091  78.504  32.585  0.00  0.00    +0.028 A 
ATOM     16  C   UNL     1      74.147  79.862  32.852  0.00  0.00    -0.039 A 
ENDBRANCH  10  11
ENDBRANCH   7  10
TORSDOF 2
ENDMDL
