MODEL 1
REMARK VINA RESULT:    -8.540      0.000      0.000
REMARK INTER + INTRA:          -9.131
REMARK INTER:                  -9.039
REMARK INTRA:                  -0.092
REMARK UNBOUND:                -0.092
REMARK  Name = 0d.sdf
REMARK  1 active torsions:
REMARK  status: ('A' for Active; 'I' for Inactive)
REMARK    1  A    between atoms: C_10  and  C_11
REMARK                            x       y       z     vdW  Elec       q    Type
REMARK                         _______ _______ _______ _____ _____    ______ ____
ROOT
ATOM      1  C   UNL     1      75.093  76.890  31.655  0.00  0.00    -0.061 A 
ATOM      2  C   UNL     1      75.605  78.174  31.508  0.00  0.00    -0.060 A 
ATOM      3  C   UNL     1      74.859  79.295  31.890  0.00  0.00    -0.037 A 
ATOM      4  C   UNL     1      73.574  79.096  32.426  0.00  0.00    +0.057 A 
ATOM      5  C   UNL     1      73.052  77.806  32.589  0.00  0.00    +0.000 A 
ATOM      6  C   UNL     1      73.820  76.694  32.194  0.00  0.00    -0.053 A 
ATOM      7  N   UNL     1      72.638  80.001  32.931  0.00  0.00    -0.283 N 
ATOM      8  C   UNL     1      71.529  79.275  33.346  0.00  0.00    +0.014 A 
ATOM      9  C   UNL     1      71.765  77.935  33.163  0.00  0.00    -0.036 A 
ATOM     10  C   UNL     1      72.772  81.410  33.028  0.00  0.00    +0.263 C 
ATOM     11  O   UNL     1      73.545  81.977  32.261  0.00  0.00    -0.267 OA
ENDROOT
BRANCH  10  12
ATOM     12  C   UNL     1      72.015  82.224  34.018  0.00  0.00    +0.040 A 
ATOM     13  C   UNL     1      72.070  81.907  35.382  0.00  0.00    -0.049 A 
ATOM     14  C   UNL     1      71.320  82.640  36.302  0.00  0.00    -0.061 A 
ATOM     15  C   UNL     1      70.540  83.710  35.864  0.00  0.00    -0.062 A 
ATOM     16  C   UNL     1      70.527  84.063  34.514  0.00  0.00    -0.061 A 
ATOM     17  C   UNL     1      71.272  83.326  33.588  0.00  0.00    -0.049 A 
ENDBRANCH  10  12
TORSDOF 1
ENDMDL
