MODEL 1
REMARK VINA RESULT:    -6.923      0.000      0.000
REMARK INTER + INTRA:         -10.014
REMARK INTER:                  -9.351
REMARK INTRA:                  -0.663
REMARK UNBOUND:                -0.663
REMARK  Name = 17h.sdf
REMARK  8 active torsions:
REMARK  status: ('A' for Active; 'I' for Inactive)
REMARK    1  A    between atoms: N_7  and  C_16
REMARK    2  A    between atoms: C_9  and  C_10
REMARK    3  A    between atoms: N_11  and  N_12
REMARK    4  A    between atoms: C_16  and  C_17
REMARK    5  A    between atoms: C_20  and  O_23
REMARK    6  A    between atoms: C_21  and  O_24
REMARK    7  A    between atoms: O_23  and  C_25
REMARK    8  A    between atoms: O_24  and  C_26
REMARK                            x       y       z     vdW  Elec       q    Type
REMARK                         _______ _______ _______ _____ _____    ______ ____
ROOT
ATOM      1  C   UNL     1      75.074  77.362  30.517  0.00  0.00    -0.061 A 
ATOM      2  C   UNL     1      74.566  77.005  31.761  0.00  0.00    -0.060 A 
ATOM      3  C   UNL     1      75.132  75.957  32.497  0.00  0.00    -0.038 A 
ATOM      4  C   UNL     1      76.228  75.273  31.944  0.00  0.00    +0.050 A 
ATOM      5  C   UNL     1      76.775  75.636  30.706  0.00  0.00    +0.009 A 
ATOM      6  C   UNL     1      76.179  76.694  29.984  0.00  0.00    -0.052 A 
ATOM      7  N   UNL     1      76.947  74.185  32.400  0.00  0.00    -0.342 N 
ATOM      8  C   UNL     1      77.941  73.878  31.505  0.00  0.00    +0.015 A 
ATOM      9  C   UNL     1      77.885  74.772  30.454  0.00  0.00    +0.020 A 
ENDROOT
BRANCH   9  10
ATOM     10  C   UNL     1      78.787  74.790  29.322  0.00  0.00    +0.055 C 
ATOM     11  N   UNL     1      79.893  74.120  29.398  0.00  0.00    -0.186 NA
BRANCH  11  12
ATOM     12  N   UNL     1      80.704  74.207  28.298  0.00  0.00    -0.191 N 
ATOM     13  C   UNL     1      81.973  74.726  28.385  0.00  0.00    +0.317 C 
ATOM     14  O   UNL     1      82.701  74.876  27.415  0.00  0.00    -0.251 OA
ATOM     15  N   UNL     1      82.356  75.044  29.647  0.00  0.00    -0.312 N 
ATOM     16  H   UNL     1      80.370  73.894  27.426  0.00  0.00    +0.000 HD
ATOM     17  H   UNL     1      81.736  74.905  30.398  0.00  0.00    +0.000 HD
ATOM     18  H   UNL     1      83.253  75.413  29.810  0.00  0.00    +0.000 HD
ENDBRANCH  11  12
ENDBRANCH   9  10
BRANCH   7  19
ATOM     19  C   UNL     1      76.588  73.327  33.526  0.00  0.00    +0.048 C 
BRANCH  19  20
ATOM     20  C   UNL     1      77.695  73.095  34.529  0.00  0.00    -0.024 A 
ATOM     21  C   UNL     1      78.795  73.955  34.628  0.00  0.00    -0.053 A 
ATOM     22  C   UNL     1      79.901  73.616  35.415  0.00  0.00    -0.016 A 
ATOM     23  C   UNL     1      79.936  72.402  36.104  0.00  0.00    +0.162 A 
ATOM     24  C   UNL     1      78.818  71.549  36.056  0.00  0.00    +0.162 A 
ATOM     25  C   UNL     1      77.709  71.903  35.274  0.00  0.00    -0.011 A 
BRANCH  23  26
ATOM     26  O   UNL     1      81.009  71.957  36.836  0.00  0.00    -0.491 OA
ATOM     27  C   UNL     1      82.309  72.236  36.334  0.00  0.00    +0.079 C 
ENDBRANCH  23  26
BRANCH  24  28
ATOM     28  O   UNL     1      78.920  70.379  36.768  0.00  0.00    -0.491 OA
ATOM     29  C   UNL     1      77.960  70.138  37.787  0.00  0.00    +0.079 C 
ENDBRANCH  24  28
ENDBRANCH  19  20
ENDBRANCH   7  19
TORSDOF 6
ENDMDL
