MODEL 1
REMARK VINA RESULT:    -6.897      0.000      0.000
REMARK INTER + INTRA:         -10.251
REMARK INTER:                  -9.720
REMARK INTRA:                  -0.531
REMARK UNBOUND:                -0.531
REMARK  Name = 17k.sdf
REMARK  10 active torsions:
REMARK  status: ('A' for Active; 'I' for Inactive)
REMARK    1  A    between atoms: N_7  and  C_16
REMARK    2  A    between atoms: C_9  and  C_10
REMARK    3  A    between atoms: N_11  and  N_12
REMARK    4  A    between atoms: C_16  and  C_17
REMARK    5  A    between atoms: C_19  and  O_23
REMARK    6  A    between atoms: C_20  and  O_27
REMARK    7  A    between atoms: C_21  and  O_25
REMARK    8  A    between atoms: O_23  and  C_24
REMARK    9  A    between atoms: O_25  and  C_26
REMARK   10  A    between atoms: O_27  and  C_28
REMARK                            x       y       z     vdW  Elec       q    Type
REMARK                         _______ _______ _______ _____ _____    ______ ____
ROOT
ATOM      1  C   UNL     1      75.092  77.397  30.498  0.00  0.00    -0.061 A 
ATOM      2  C   UNL     1      74.539  77.039  31.724  0.00  0.00    -0.060 A 
ATOM      3  C   UNL     1      75.050  75.963  32.456  0.00  0.00    -0.038 A 
ATOM      4  C   UNL     1      76.133  75.249  31.918  0.00  0.00    +0.050 A 
ATOM      5  C   UNL     1      76.734  75.618  30.708  0.00  0.00    +0.009 A 
ATOM      6  C   UNL     1      76.193  76.705  29.987  0.00  0.00    -0.052 A 
ATOM      7  N   UNL     1      76.808  74.136  32.381  0.00  0.00    -0.342 N 
ATOM      8  C   UNL     1      77.847  73.837  31.536  0.00  0.00    +0.015 A 
ATOM      9  C   UNL     1      77.843  74.741  30.491  0.00  0.00    +0.020 A 
ENDROOT
BRANCH   9  10
ATOM     10  C   UNL     1      78.797  74.778  29.403  0.00  0.00    +0.055 C 
ATOM     11  N   UNL     1      79.955  74.225  29.567  0.00  0.00    -0.186 NA
BRANCH  11  12
ATOM     12  N   UNL     1      80.804  74.319  28.498  0.00  0.00    -0.191 N 
ATOM     13  C   UNL     1      82.049  74.883  28.619  0.00  0.00    +0.317 C 
ATOM     14  O   UNL     1      82.813  75.023  27.672  0.00  0.00    -0.251 OA
ATOM     15  N   UNL     1      82.364  75.270  29.879  0.00  0.00    -0.312 N 
ATOM     16  H   UNL     1      80.515  73.975  27.622  0.00  0.00    +0.000 HD
ATOM     17  H   UNL     1      81.719  75.138  30.611  0.00  0.00    +0.000 HD
ATOM     18  H   UNL     1      83.239  75.684  30.063  0.00  0.00    +0.000 HD
ENDBRANCH  11  12
ENDBRANCH   9  10
BRANCH   7  19
ATOM     19  C   UNL     1      76.461  73.340  33.560  0.00  0.00    +0.049 C 
BRANCH  19  20
ATOM     20  C   UNL     1      77.642  72.902  34.399  0.00  0.00    -0.021 A 
ATOM     21  C   UNL     1      77.567  71.911  35.381  0.00  0.00    -0.011 A 
ATOM     22  C   UNL     1      78.661  71.599  36.209  0.00  0.00    +0.165 A 
ATOM     23  C   UNL     1      79.898  72.260  36.022  0.00  0.00    +0.204 A 
ATOM     24  C   UNL     1      80.003  73.215  34.986  0.00  0.00    +0.165 A 
ATOM     25  C   UNL     1      78.879  73.524  34.199  0.00  0.00    -0.011 A 
BRANCH  22  26
ATOM     26  O   UNL     1      78.561  70.659  37.205  0.00  0.00    -0.491 OA
ATOM     27  C   UNL     1      77.814  70.978  38.373  0.00  0.00    +0.079 C 
ENDBRANCH  22  26
BRANCH  24  28
ATOM     28  O   UNL     1      81.096  73.950  34.597  0.00  0.00    -0.491 OA
ATOM     29  C   UNL     1      81.253  74.306  33.231  0.00  0.00    +0.079 C 
ENDBRANCH  24  28
BRANCH  23  30
ATOM     30  O   UNL     1      81.034  72.052  36.759  0.00  0.00    -0.488 OA
ATOM     31  C   UNL     1      81.984  71.072  36.378  0.00  0.00    +0.079 C 
ENDBRANCH  23  30
ENDBRANCH  19  20
ENDBRANCH   7  19
TORSDOF 7
ENDMDL
