MODEL 1
REMARK VINA RESULT:    -8.444      0.000      0.000
REMARK INTER + INTRA:         -11.754
REMARK INTER:                 -10.912
REMARK INTRA:                  -0.842
REMARK UNBOUND:                -0.842
REMARK  Name = 18a.sdf
REMARK  5 active torsions:
REMARK  status: ('A' for Active; 'I' for Inactive)
REMARK    1  A    between atoms: N_7  and  C_12
REMARK    2  A    between atoms: C_9  and  C_10
REMARK    3  A    between atoms: N_11  and  N_19
REMARK    4  A    between atoms: C_12  and  C_13
REMARK    5  A    between atoms: C_20  and  C_22
REMARK                            x       y       z     vdW  Elec       q    Type
REMARK                         _______ _______ _______ _____ _____    ______ ____
ROOT
ATOM      1  C   UNL     1      79.518  73.963  30.247  0.00  0.00    -0.061 A 
ATOM      2  C   UNL     1      78.913  74.834  29.349  0.00  0.00    -0.060 A 
ATOM      3  C   UNL     1      77.690  75.446  29.650  0.00  0.00    -0.038 A 
ATOM      4  C   UNL     1      77.084  75.159  30.885  0.00  0.00    +0.050 A 
ATOM      5  C   UNL     1      77.705  74.328  31.827  0.00  0.00    +0.009 A 
ATOM      6  C   UNL     1      78.932  73.715  31.491  0.00  0.00    -0.052 A 
ATOM      7  N   UNL     1      75.870  75.545  31.428  0.00  0.00    -0.342 N 
ATOM      8  C   UNL     1      75.760  75.056  32.707  0.00  0.00    +0.015 A 
ATOM      9  C   UNL     1      76.884  74.309  32.997  0.00  0.00    +0.020 A 
ENDROOT
BRANCH   9  10
ATOM     10  C   UNL     1      77.163  73.634  34.248  0.00  0.00    +0.055 C 
ATOM     11  N   UNL     1      77.069  72.343  34.316  0.00  0.00    -0.187 NA
BRANCH  11  12
ATOM     12  N   UNL     1      77.337  71.788  35.536  0.00  0.00    -0.203 N 
ATOM     13  C   UNL     1      78.542  71.129  35.736  0.00  0.00    +0.263 C 
ATOM     14  O   UNL     1      79.425  71.007  34.893  0.00  0.00    -0.268 OA
ATOM     15  H   UNL     1      76.680  71.854  36.268  0.00  0.00    +0.000 HD
BRANCH  13  16
ATOM     16  C   UNL     1      78.762  70.570  37.103  0.00  0.00    +0.038 A 
ATOM     17  C   UNL     1      79.793  69.664  37.389  0.00  0.00    -0.050 A 
ATOM     18  C   UNL     1      79.952  69.181  38.697  0.00  0.00    -0.061 A 
ATOM     19  C   UNL     1      79.094  69.604  39.712  0.00  0.00    -0.062 A 
ATOM     20  C   UNL     1      78.081  70.520  39.434  0.00  0.00    -0.061 A 
ATOM     21  C   UNL     1      77.919  71.004  38.133  0.00  0.00    -0.050 A 
ENDBRANCH  13  16
ENDBRANCH  11  12
ENDBRANCH   9  10
BRANCH   7  22
ATOM     22  C   UNL     1      74.788  76.252  30.739  0.00  0.00    +0.048 C 
BRANCH  22  23
ATOM     23  C   UNL     1      74.265  77.409  31.554  0.00  0.00    -0.028 A 
ATOM     24  C   UNL     1      72.930  77.431  31.981  0.00  0.00    -0.056 A 
ATOM     25  C   UNL     1      72.399  78.567  32.593  0.00  0.00    -0.047 A 
ATOM     26  C   UNL     1      73.208  79.681  32.800  0.00  0.00    +0.018 A 
ATOM     27  C   UNL     1      74.557  79.647  32.459  0.00  0.00    -0.047 A 
ATOM     28  C   UNL     1      75.085  78.512  31.839  0.00  0.00    -0.056 A 
ATOM     29 BR   UNL     1      72.454  81.267  33.500  0.00  0.00    -0.050 Br
ENDBRANCH  22  23
ENDBRANCH   7  22
TORSDOF 5
ENDMDL
