MODEL 1
REMARK VINA RESULT:    -5.848      0.000      0.000
REMARK INTER + INTRA:          -6.214
REMARK INTER:                  -6.189
REMARK INTRA:                  -0.025
REMARK UNBOUND:                -0.025
REMARK  Name = 1.sdf
REMARK  1 active torsions:
REMARK  status: ('A' for Active; 'I' for Inactive)
REMARK    1  A    between atoms: C_9  and  C_10
REMARK                            x       y       z     vdW  Elec       q    Type
REMARK                         _______ _______ _______ _____ _____    ______ ____
ROOT
ATOM      1  C   UNL     1      73.429  80.355  32.102  0.00  0.00    -0.061 A 
ATOM      2  C   UNL     1      72.643  79.751  33.078  0.00  0.00    -0.060 A 
ATOM      3  C   UNL     1      72.740  78.381  33.336  0.00  0.00    -0.038 A 
ATOM      4  C   UNL     1      73.651  77.639  32.574  0.00  0.00    +0.047 A 
ATOM      5  C   UNL     1      74.454  78.213  31.585  0.00  0.00    +0.010 A 
ATOM      6  C   UNL     1      74.338  79.600  31.351  0.00  0.00    -0.052 A 
ATOM      7  N   UNL     1      73.947  76.296  32.609  0.00  0.00    -0.360 N 
ATOM      8  C   UNL     1      74.899  75.998  31.674  0.00  0.00    +0.013 A 
ATOM      9  C   UNL     1      75.245  77.164  31.017  0.00  0.00    +0.039 A 
ATOM     10  H   UNL     1      73.533  75.643  33.220  0.00  0.00    +0.000 HD
ENDROOT
BRANCH   9  11
ATOM     11  C   UNL     1      76.225  77.263  29.952  0.00  0.00    +0.152 C 
ATOM     12  O   UNL     1      76.965  76.345  29.613  0.00  0.00    -0.296 OA
ENDBRANCH   9  11
TORSDOF 1
ENDMDL
