MODEL 1
REMARK VINA RESULT:    -7.523      0.000      0.000
REMARK INTER + INTRA:          -9.374
REMARK INTER:                  -8.842
REMARK INTRA:                  -0.532
REMARK UNBOUND:                -0.532
REMARK  Name = 1c.sdf
REMARK  3 active torsions:
REMARK  status: ('A' for Active; 'I' for Inactive)
REMARK    1  A    between atoms: N_7  and  C_12
REMARK    2  A    between atoms: C_9  and  C_10
REMARK    3  A    between atoms: C_12  and  C_13
REMARK                            x       y       z     vdW  Elec       q    Type
REMARK                         _______ _______ _______ _____ _____    ______ ____
ROOT
ATOM      1  C   UNL     1      79.415  73.968  30.232  0.00  0.00    -0.061 A 
ATOM      2  C   UNL     1      78.813  74.886  29.376  0.00  0.00    -0.060 A 
ATOM      3  C   UNL     1      77.617  75.531  29.725  0.00  0.00    -0.038 A 
ATOM      4  C   UNL     1      77.012  75.210  30.952  0.00  0.00    +0.050 A 
ATOM      5  C   UNL     1      77.638  74.334  31.855  0.00  0.00    +0.010 A 
ATOM      6  C   UNL     1      78.847  73.707  31.481  0.00  0.00    -0.052 A 
ATOM      7  N   UNL     1      75.803  75.584  31.529  0.00  0.00    -0.342 N 
ATOM      8  C   UNL     1      75.719  75.053  32.795  0.00  0.00    +0.016 A 
ATOM      9  C   UNL     1      76.839  74.282  33.028  0.00  0.00    +0.039 A 
ENDROOT
BRANCH   9  10
ATOM     10  C   UNL     1      77.112  73.552  34.254  0.00  0.00    +0.152 C 
ATOM     11  O   UNL     1      76.842  72.370  34.417  0.00  0.00    -0.296 OA
ENDBRANCH   9  10
BRANCH   7  12
ATOM     12  C   UNL     1      74.680  76.282  30.894  0.00  0.00    +0.048 C 
BRANCH  12  13
ATOM     13  C   UNL     1      74.200  77.457  31.711  0.00  0.00    -0.028 A 
ATOM     14  C   UNL     1      72.904  77.456  32.244  0.00  0.00    -0.055 A 
ATOM     15  C   UNL     1      72.370  78.614  32.811  0.00  0.00    -0.043 A 
ATOM     16  C   UNL     1      73.145  79.769  32.884  0.00  0.00    +0.041 A 
ATOM     17  C   UNL     1      74.474  79.753  32.467  0.00  0.00    -0.043 A 
ATOM     18  C   UNL     1      75.003  78.597  31.884  0.00  0.00    -0.055 A 
ATOM     19 CL   UNL     1      72.438  81.237  33.436  0.00  0.00    -0.084 Cl
ENDBRANCH  12  13
ENDBRANCH   7  12
TORSDOF 3
ENDMDL
