MODEL 1
REMARK VINA RESULT:    -8.545      0.000      0.000
REMARK INTER + INTRA:         -12.121
REMARK INTER:                 -11.292
REMARK INTRA:                  -0.829
REMARK UNBOUND:                -0.829
REMARK  Name = 24c.sdf
REMARK  6 active torsions:
REMARK  status: ('A' for Active; 'I' for Inactive)
REMARK    1  A    between atoms: N_7  and  C_10
REMARK    2  A    between atoms: C_9  and  C_18
REMARK    3  A    between atoms: C_10  and  C_11
REMARK    4  A    between atoms: N_19  and  N_20
REMARK    5  A    between atoms: C_21  and  C_23
REMARK    6  A    between atoms: C_26  and  O_29
REMARK                            x       y       z     vdW  Elec       q    Type
REMARK                         _______ _______ _______ _____ _____    ______ ____
ROOT
ATOM      1  C   UNL     1      79.486  74.048  30.228  0.00  0.00    -0.061 A 
ATOM      2  C   UNL     1      78.901  74.932  29.330  0.00  0.00    -0.060 A 
ATOM      3  C   UNL     1      77.670  75.534  29.612  0.00  0.00    -0.038 A 
ATOM      4  C   UNL     1      77.041  75.229  30.831  0.00  0.00    +0.050 A 
ATOM      5  C   UNL     1      77.634  74.378  31.772  0.00  0.00    +0.009 A 
ATOM      6  C   UNL     1      78.869  73.772  31.451  0.00  0.00    -0.052 A 
ATOM      7  N   UNL     1      75.822  75.622  31.359  0.00  0.00    -0.342 N 
ATOM      8  C   UNL     1      75.677  75.110  32.622  0.00  0.00    +0.015 A 
ATOM      9  C   UNL     1      76.784  74.339  32.921  0.00  0.00    +0.020 A 
ENDROOT
BRANCH   9  10
ATOM     10  C   UNL     1      77.024  73.635  34.166  0.00  0.00    +0.055 C 
ATOM     11  N   UNL     1      77.080  72.344  34.176  0.00  0.00    -0.187 NA
BRANCH  11  12
ATOM     12  N   UNL     1      77.304  71.766  35.395  0.00  0.00    -0.203 N 
ATOM     13  C   UNL     1      78.563  71.271  35.695  0.00  0.00    +0.263 C 
ATOM     14  O   UNL     1      79.538  71.309  34.952  0.00  0.00    -0.268 OA
ATOM     15  H   UNL     1      76.575  71.701  36.054  0.00  0.00    +0.000 HD
BRANCH  13  16
ATOM     16  C   UNL     1      78.718  70.681  37.059  0.00  0.00    +0.039 A 
ATOM     17  C   UNL     1      79.746  69.777  37.376  0.00  0.00    -0.046 A 
ATOM     18  C   UNL     1      79.837  69.243  38.667  0.00  0.00    -0.019 A 
ATOM     19  C   UNL     1      78.911  69.622  39.635  0.00  0.00    +0.117 A 
ATOM     20  C   UNL     1      77.908  70.538  39.342  0.00  0.00    -0.019 A 
ATOM     21  C   UNL     1      77.813  71.071  38.054  0.00  0.00    -0.046 A 
BRANCH  19  22
ATOM     22  O   UNL     1      78.957  69.118  40.900  0.00  0.00    -0.507 OA
ATOM     23  H   UNL     1      79.783  68.918  41.295  0.00  0.00    +0.000 HD
ENDBRANCH  19  22
ENDBRANCH  13  16
ENDBRANCH  11  12
ENDBRANCH   9  10
BRANCH   7  24
ATOM     24  C   UNL     1      74.781  76.376  30.663  0.00  0.00    +0.048 C 
BRANCH  24  25
ATOM     25  C   UNL     1      74.224  77.483  31.524  0.00  0.00    -0.028 A 
ATOM     26  C   UNL     1      72.901  77.428  31.987  0.00  0.00    -0.055 A 
ATOM     27  C   UNL     1      72.352  78.500  32.695  0.00  0.00    -0.043 A 
ATOM     28  C   UNL     1      73.128  79.628  32.955  0.00  0.00    +0.041 A 
ATOM     29  C   UNL     1      74.458  79.677  32.546  0.00  0.00    -0.043 A 
ATOM     30  C   UNL     1      75.005  78.607  31.834  0.00  0.00    -0.055 A 
ATOM     31 CL   UNL     1      72.430  80.975  33.766  0.00  0.00    -0.084 Cl
ENDBRANCH  24  25
ENDBRANCH   7  24
TORSDOF 6
ENDMDL
