MODEL 1
REMARK VINA RESULT:    -6.909      0.000      0.000
REMARK INTER + INTRA:          -8.506
REMARK INTER:                  -8.322
REMARK INTRA:                  -0.184
REMARK UNBOUND:                -0.184
REMARK  Name = 3.sdf
REMARK  4 active torsions:
REMARK  status: ('A' for Active; 'I' for Inactive)
REMARK    1  A    between atoms: CG_9  and  CB_10
REMARK    2  A    between atoms: CB_10  and  CA_11
REMARK    3  A    between atoms: CA_11  and  C_12
REMARK    4  A    between atoms: CA_11  and  N_15
REMARK                            x       y       z     vdW  Elec       q    Type
REMARK                         _______ _______ _______ _____ _____    ______ ____
ROOT
ATOM      1  CZ3 TRP A   1      77.532  73.950  32.159  0.00  0.00    -0.061 A 
ATOM      2  CH2 TRP A   1      78.430  74.096  31.104  0.00  0.00    -0.060 A 
ATOM      3  CZ2 TRP A   1      78.218  75.055  30.111  0.00  0.00    -0.038 A 
ATOM      4  CE2 TRP A   1      77.084  75.869  30.223  0.00  0.00    +0.047 A 
ATOM      5  CD2 TRP A   1      76.179  75.769  31.281  0.00  0.00    +0.003 A 
ATOM      6  CE3 TRP A   1      76.406  74.779  32.260  0.00  0.00    -0.052 A 
ATOM      7  NE1 TRP A   1      76.635  76.872  29.402  0.00  0.00    -0.360 N 
ATOM      8  CD1 TRP A   1      75.510  77.446  29.924  0.00  0.00    +0.006 A 
ATOM      9  CG  TRP A   1      75.190  76.797  31.102  0.00  0.00    -0.020 A 
ATOM     10  HE1 TRP A   1      77.063  77.140  28.556  0.00  0.00    +0.000 HD
ENDROOT
BRANCH   9  11
ATOM     11  CB  TRP A   1      74.073  77.133  32.050  0.00  0.00    -0.000 C 
BRANCH  11  12
ATOM     12  CA  TRP A   1      73.600  78.592  32.022  0.00  0.00    +0.107 C 
BRANCH  12  13
ATOM     13  N   TRP A   1      74.548  79.481  32.746  0.00  0.00    -0.318 N 
ATOM     14  H1  TRP A   1      75.480  79.383  32.344  0.00  0.00    +0.000 HD
ATOM     15  H2  TRP A   1      74.575  79.219  33.732  0.00  0.00    +0.000 HD
ATOM     16  H3  TRP A   1      74.240  80.449  32.661  0.00  0.00    +0.000 HD
ENDBRANCH  12  13
BRANCH  12  17
ATOM     17  C   TRP A   1      72.188  78.767  32.603  0.00  0.00    +0.322 C 
ATOM     18  O   TRP A   1      71.552  79.888  32.180  0.00  0.00    -0.480 OA
ATOM     19  OXT TRP A   1      71.631  77.932  33.301  0.00  0.00    -0.249 OA
ENDBRANCH  12  17
ENDBRANCH  11  12
ENDBRANCH   9  11
TORSDOF 4
ENDMDL
