MODEL 1
REMARK VINA RESULT:    -7.953      0.000      0.000
REMARK INTER + INTRA:         -10.221
REMARK INTER:                  -9.813
REMARK INTRA:                  -0.407
REMARK UNBOUND:                -0.407
REMARK  Name = 5d.sdf
REMARK  5 active torsions:
REMARK  status: ('A' for Active; 'I' for Inactive)
REMARK    1  A    between atoms: C_9  and  C_10
REMARK    2  A    between atoms: C_11  and  C_19
REMARK    3  A    between atoms: C_12  and  C_13
REMARK    4  A    between atoms: C_19  and  O_20
REMARK    5  A    between atoms: O_20  and  C_22
REMARK                            x       y       z     vdW  Elec       q    Type
REMARK                         _______ _______ _______ _____ _____    ______ ____
ROOT
ATOM      1  C   UNL     1      79.558  73.832  30.226  0.00  0.00    -0.061 A 
ATOM      2  C   UNL     1      79.056  74.767  29.331  0.00  0.00    -0.060 A 
ATOM      3  C   UNL     1      77.878  75.464  29.610  0.00  0.00    -0.037 A 
ATOM      4  C   UNL     1      77.205  75.198  30.818  0.00  0.00    +0.057 A 
ATOM      5  C   UNL     1      77.698  74.261  31.739  0.00  0.00    +0.007 A 
ATOM      6  C   UNL     1      78.890  73.571  31.427  0.00  0.00    -0.052 A 
ATOM      7  N   UNL     1      76.063  75.778  31.371  0.00  0.00    -0.283 N 
ATOM      8  C   UNL     1      75.810  75.145  32.580  0.00  0.00    +0.021 A 
ATOM      9  C   UNL     1      76.805  74.236  32.852  0.00  0.00    +0.001 A 
ATOM     10  C   UNL     1      75.294  76.842  30.830  0.00  0.00    +0.263 C 
ATOM     11  O   UNL     1      75.337  77.045  29.619  0.00  0.00    -0.267 OA
ENDROOT
BRANCH  10  12
ATOM     12  C   UNL     1      74.442  77.723  31.672  0.00  0.00    +0.040 A 
ATOM     13  C   UNL     1      73.141  77.322  32.006  0.00  0.00    -0.049 A 
ATOM     14  C   UNL     1      72.312  78.173  32.732  0.00  0.00    -0.061 A 
ATOM     15  C   UNL     1      72.792  79.410  33.158  0.00  0.00    -0.062 A 
ATOM     16  C   UNL     1      74.109  79.786  32.883  0.00  0.00    -0.061 A 
ATOM     17  C   UNL     1      74.942  78.939  32.146  0.00  0.00    -0.049 A 
ENDBRANCH  10  12
BRANCH   9  18
ATOM     18  C   UNL     1      76.906  73.425  34.033  0.00  0.00    -0.046 C 
ATOM     19  C   UNL     1      77.053  72.090  34.048  0.00  0.00    +0.023 C 
BRANCH  19  20
ATOM     20  C   UNL     1      77.152  71.227  35.244  0.00  0.00    +0.332 C 
ATOM     21  O   UNL     1      76.564  70.157  35.303  0.00  0.00    -0.246 OA
BRANCH  20  22
ATOM     22  O   UNL     1      77.936  71.756  36.216  0.00  0.00    -0.465 OA
ATOM     23  C   UNL     1      77.912  71.003  37.433  0.00  0.00    +0.082 C 
ENDBRANCH  20  22
ENDBRANCH  19  20
ENDBRANCH   9  18
TORSDOF 4
ENDMDL
