MODEL 1
REMARK VINA RESULT:    -6.664      0.000      0.000
REMARK INTER + INTRA:          -7.972
REMARK INTER:                  -7.832
REMARK INTRA:                  -0.139
REMARK UNBOUND:                -0.139
REMARK  Name = 7.sdf
REMARK  4 active torsions:
REMARK  status: ('A' for Active; 'I' for Inactive)
REMARK    1  A    between atoms: C_9  and  C_10
REMARK    2  A    between atoms: C_10  and  C_11
REMARK    3  A    between atoms: C_11  and  O_13
REMARK    4  A    between atoms: O_13  and  C_14
REMARK                            x       y       z     vdW  Elec       q    Type
REMARK                         _______ _______ _______ _____ _____    ______ ____
ROOT
ATOM      1  C   UNL     1      77.401  74.212  31.890  0.00  0.00    -0.061 A 
ATOM      2  C   UNL     1      78.113  74.535  30.737  0.00  0.00    -0.060 A 
ATOM      3  C   UNL     1      77.679  75.558  29.889  0.00  0.00    -0.038 A 
ATOM      4  C   UNL     1      76.515  76.249  30.246  0.00  0.00    +0.047 A 
ATOM      5  C   UNL     1      75.787  75.963  31.402  0.00  0.00    +0.003 A 
ATOM      6  C   UNL     1      76.239  74.916  32.233  0.00  0.00    -0.052 A 
ATOM      7  N   UNL     1      75.868  77.278  29.603  0.00  0.00    -0.360 N 
ATOM      8  C   UNL     1      74.783  77.682  30.330  0.00  0.00    +0.006 A 
ATOM      9  C   UNL     1      74.695  76.892  31.462  0.00  0.00    -0.012 A 
ATOM     10  H   UNL     1      76.147  77.668  28.744  0.00  0.00    +0.000 HD
ENDROOT
BRANCH   9  11
ATOM     11  C   UNL     1      73.683  77.032  32.556  0.00  0.00    +0.072 C 
BRANCH  11  12
ATOM     12  C   UNL     1      72.949  78.357  32.563  0.00  0.00    +0.311 C 
ATOM     13  O   UNL     1      71.785  78.556  32.247  0.00  0.00    -0.250 OA
BRANCH  12  14
ATOM     14  O   UNL     1      73.820  79.333  32.971  0.00  0.00    -0.468 OA
ATOM     15  C   UNL     1      73.479  80.658  32.555  0.00  0.00    +0.082 C 
ENDBRANCH  12  14
ENDBRANCH  11  12
ENDBRANCH   9  11
TORSDOF 3
ENDMDL
