MODEL 1
REMARK VINA RESULT:    -8.382      0.000      0.000
REMARK INTER + INTRA:         -11.430
REMARK INTER:                 -10.832
REMARK INTRA:                  -0.598
REMARK UNBOUND:                -0.598
REMARK  Name = 8a.sdf
REMARK  5 active torsions:
REMARK  status: ('A' for Active; 'I' for Inactive)
REMARK    1  A    between atoms: N_7  and  C_12
REMARK    2  A    between atoms: C_9  and  C_10
REMARK    3  A    between atoms: N_11  and  N_20
REMARK    4  A    between atoms: C_12  and  C_13
REMARK    5  A    between atoms: C_21  and  C_23
REMARK                            x       y       z     vdW  Elec       q    Type
REMARK                         _______ _______ _______ _____ _____    ______ ____
ROOT
ATOM      1  C   UNL     1      79.333  73.862  30.270  0.00  0.00    -0.061 A 
ATOM      2  C   UNL     1      78.898  74.838  29.381  0.00  0.00    -0.060 A 
ATOM      3  C   UNL     1      77.726  75.562  29.625  0.00  0.00    -0.038 A 
ATOM      4  C   UNL     1      77.003  75.287  30.799  0.00  0.00    +0.050 A 
ATOM      5  C   UNL     1      77.447  74.340  31.730  0.00  0.00    +0.009 A 
ATOM      6  C   UNL     1      78.623  73.611  31.447  0.00  0.00    -0.052 A 
ATOM      7  N   UNL     1      75.811  75.795  31.278  0.00  0.00    -0.342 N 
ATOM      8  C   UNL     1      75.538  75.256  32.511  0.00  0.00    +0.015 A 
ATOM      9  C   UNL     1      76.534  74.353  32.831  0.00  0.00    +0.020 A 
ENDROOT
BRANCH   9  10
ATOM     10  C   UNL     1      76.623  73.584  34.050  0.00  0.00    +0.055 C 
ATOM     11  N   UNL     1      76.878  72.315  33.997  0.00  0.00    -0.187 NA
BRANCH  11  12
ATOM     12  N   UNL     1      76.938  71.665  35.197  0.00  0.00    -0.203 N 
ATOM     13  C   UNL     1      78.141  71.616  35.888  0.00  0.00    +0.263 C 
ATOM     14  O   UNL     1      79.192  72.125  35.521  0.00  0.00    -0.268 OA
ATOM     15  H   UNL     1      76.134  71.235  35.569  0.00  0.00    +0.000 HD
BRANCH  13  16
ATOM     16  C   UNL     1      78.100  70.905  37.200  0.00  0.00    +0.038 A 
ATOM     17  C   UNL     1      78.815  71.345  38.321  0.00  0.00    -0.049 A 
ATOM     18  C   UNL     1      78.738  70.636  39.524  0.00  0.00    -0.047 A 
ATOM     19  C   UNL     1      77.937  69.495  39.609  0.00  0.00    +0.018 A 
ATOM     20  C   UNL     1      77.204  69.062  38.508  0.00  0.00    -0.047 A 
ATOM     21  C   UNL     1      77.280  69.771  37.306  0.00  0.00    -0.049 A 
ATOM     22 BR   UNL     1      77.841  68.539  41.236  0.00  0.00    -0.050 Br
ENDBRANCH  13  16
ENDBRANCH  11  12
ENDBRANCH   9  10
BRANCH   7  23
ATOM     23  C   UNL     1      74.899  76.686  30.562  0.00  0.00    +0.048 C 
BRANCH  23  24
ATOM     24  C   UNL     1      74.305  77.731  31.474  0.00  0.00    -0.028 A 
ATOM     25  C   UNL     1      72.965  77.646  31.880  0.00  0.00    -0.056 A 
ATOM     26  C   UNL     1      72.387  78.668  32.634  0.00  0.00    -0.047 A 
ATOM     27  C   UNL     1      73.149  79.774  33.000  0.00  0.00    +0.018 A 
ATOM     28  C   UNL     1      74.495  79.850  32.650  0.00  0.00    -0.047 A 
ATOM     29  C   UNL     1      75.072  78.831  31.890  0.00  0.00    -0.056 A 
ATOM     30 BR   UNL     1      72.341  81.197  33.947  0.00  0.00    -0.050 Br
ENDBRANCH  23  24
ENDBRANCH   7  23
TORSDOF 5
ENDMDL
