MODEL 1
REMARK VINA RESULT:    -8.477      0.000      0.000
REMARK INTER + INTRA:         -12.000
REMARK INTER:                 -10.955
REMARK INTRA:                  -1.045
REMARK UNBOUND:                -1.045
REMARK  Name = 9a.sdf
REMARK  5 active torsions:
REMARK  status: ('A' for Active; 'I' for Inactive)
REMARK    1  A    between atoms: N_7  and  C_11
REMARK    2  A    between atoms: C_9  and  C_10
REMARK    3  A    between atoms: C_11  and  C_12
REMARK    4  A    between atoms: C_19  and  C_20
REMARK    5  A    between atoms: C_20  and  C_21
REMARK                            x       y       z     vdW  Elec       q    Type
REMARK                         _______ _______ _______ _____ _____    ______ ____
ROOT
ATOM      1  C   UNL     1      77.330  72.698  34.760  0.00  0.00    -0.061 A 
ATOM      2  C   UNL     1      78.693  72.471  34.911  0.00  0.00    -0.060 A 
ATOM      3  C   UNL     1      79.617  73.009  34.009  0.00  0.00    -0.038 A 
ATOM      4  C   UNL     1      79.135  73.791  32.946  0.00  0.00    +0.050 A 
ATOM      5  C   UNL     1      77.770  74.066  32.798  0.00  0.00    +0.007 A 
ATOM      6  C   UNL     1      76.859  73.498  33.716  0.00  0.00    -0.052 A 
ATOM      7  N   UNL     1      79.786  74.405  31.890  0.00  0.00    -0.342 N 
ATOM      8  C   UNL     1      78.882  75.115  31.132  0.00  0.00    +0.013 A 
ATOM      9  C   UNL     1      77.625  74.926  31.668  0.00  0.00    +0.000 A 
ENDROOT
BRANCH   9  10
ATOM     10  C   UNL     1      76.401  75.497  31.190  0.00  0.00    -0.049 C 
ATOM     11  C   UNL     1      75.628  76.356  31.869  0.00  0.00    -0.014 C 
BRANCH  11  12
ATOM     12  C   UNL     1      74.335  76.830  31.304  0.00  0.00    +0.186 C 
ATOM     13  O   UNL     1      73.792  76.274  30.354  0.00  0.00    -0.287 OA
BRANCH  12  14
ATOM     14  C   UNL     1      73.749  78.046  31.922  0.00  0.00    +0.022 A 
ATOM     15  C   UNL     1      72.449  77.983  32.439  0.00  0.00    -0.051 A 
ATOM     16  C   UNL     1      71.859  79.126  32.985  0.00  0.00    -0.061 A 
ATOM     17  C   UNL     1      72.571  80.326  33.033  0.00  0.00    -0.062 A 
ATOM     18  C   UNL     1      73.875  80.382  32.554  0.00  0.00    -0.061 A 
ATOM     19  C   UNL     1      74.471  79.245  32.010  0.00  0.00    -0.051 A 
ENDBRANCH  12  14
ENDBRANCH  11  12
ENDBRANCH   9  10
BRANCH   7  20
ATOM     20  C   UNL     1      81.197  74.250  31.534  0.00  0.00    +0.048 C 
BRANCH  20  21
ATOM     21  C   UNL     1      81.368  73.504  30.234  0.00  0.00    -0.028 A 
ATOM     22  C   UNL     1      81.876  74.156  29.101  0.00  0.00    -0.056 A 
ATOM     23  C   UNL     1      81.922  73.505  27.867  0.00  0.00    -0.047 A 
ATOM     24  C   UNL     1      81.475  72.191  27.762  0.00  0.00    +0.018 A 
ATOM     25  C   UNL     1      81.026  71.506  28.889  0.00  0.00    -0.047 A 
ATOM     26  C   UNL     1      80.976  72.160  30.122  0.00  0.00    -0.056 A 
ATOM     27 BR   UNL     1      81.442  71.344  26.072  0.00  0.00    -0.050 Br
ENDBRANCH  20  21
ENDBRANCH   7  20
TORSDOF 5
ENDMDL
