REMARK  Name = native.pdb
REMARK  42 active torsions:
REMARK  status: ('A' for Active; 'I' for Inactive)
REMARK    1  A    between atoms: C_1  and  C_2
REMARK    2  A    between atoms: C_2  and  C_3
REMARK    3  A    between atoms: C_3  and  C_4
REMARK    4  A    between atoms: C_4  and  C_5
REMARK    5  A    between atoms: C_5  and  C_6
REMARK    6  A    between atoms: C_6  and  C_7
REMARK    7  A    between atoms: C_7  and  C_8
REMARK    8  A    between atoms: C_8  and  C_9
REMARK    9  A    between atoms: C_9  and  C_10
REMARK   10  A    between atoms: C_10  and  C_11
REMARK   11  A    between atoms: C_11  and  C_12
REMARK   12  A    between atoms: C_12  and  C_13
REMARK   13  A    between atoms: C_13  and  C_14
REMARK   14  A    between atoms: C_14  and  C_15
REMARK   15  A    between atoms: C_15  and  C_16
REMARK   16  A    between atoms: C_16  and  C_17
REMARK   17  A    between atoms: C_17  and  C_18
REMARK   18  A    between atoms: C_18  and  O_20
REMARK   19  A    between atoms: O_20  and  C_21
REMARK   20  A    between atoms: C_21  and  C_22
REMARK   21  A    between atoms: C_21  and  C_31
REMARK   22  A    between atoms: C_22  and  O_23
REMARK   23  A    between atoms: O_23  and  P_24
REMARK   24  A    between atoms: P_24  and  O_27
REMARK   25  A    between atoms: O_27  and  C_28
REMARK   26  A    between atoms: C_28  and  C_29
REMARK   27  A    between atoms: C_29  and  N_30
REMARK   28  A    between atoms: C_31  and  O_32
REMARK   29  A    between atoms: O_32  and  C_33
REMARK   30  A    between atoms: C_33  and  C_35
REMARK   31  A    between atoms: C_35  and  C_36
REMARK   32  A    between atoms: C_36  and  C_37
REMARK   33  A    between atoms: C_37  and  C_38
REMARK   34  A    between atoms: C_38  and  C_39
REMARK   35  A    between atoms: C_39  and  C_40
REMARK   36  A    between atoms: C_40  and  C_41
REMARK   37  A    between atoms: C_41  and  C_42
REMARK   38  A    between atoms: C_42  and  C_43
REMARK   39  A    between atoms: C_43  and  C_44
REMARK   40  A    between atoms: C_44  and  C_45
REMARK   41  A    between atoms: C_45  and  C_46
REMARK   42  A    between atoms: C_46  and  C_47
REMARK                            x       y       z     vdW  Elec       q    Type
REMARK                         _______ _______ _______ _____ _____    ______ ____
ROOT
ATOM      1  C   UNL     1      25.236   9.699  -1.367  0.00  0.00    +0.161 C 
ENDROOT
BRANCH   1   2
ATOM      2  O   UNL     1      25.485  10.748  -2.328  0.00  0.00    -0.456 OA
BRANCH   2   3
ATOM      3  C   UNL     1      24.793  11.903  -2.109  0.00  0.00    +0.308 C 
ATOM      4  O   UNL     1      24.209  12.197  -1.069  0.00  0.00    -0.251 OA
BRANCH   3   5
ATOM      5  C   UNL     1      24.763  12.735  -3.362  0.00  0.00    +0.045 C 
BRANCH   5   6
ATOM      6  C   UNL     1      25.304  14.139  -3.144  0.00  0.00    -0.043 C 
BRANCH   6   7
ATOM      7  C   UNL     1      26.770  14.113  -2.727  0.00  0.00    -0.053 C 
BRANCH   7   8
ATOM      8  C   UNL     1      27.293  15.526  -2.526  0.00  0.00    -0.053 C 
BRANCH   8   9
ATOM      9  C   UNL     1      28.750  15.489  -2.092  0.00  0.00    -0.053 C 
BRANCH   9  10
ATOM     10  C   UNL     1      29.271  16.900  -1.883  0.00  0.00    -0.053 C 
BRANCH  10  11
ATOM     11  C   UNL     1      30.727  16.860  -1.449  0.00  0.00    -0.053 C 
BRANCH  11  12
ATOM     12  C   UNL     1      31.252  18.272  -1.254  0.00  0.00    -0.053 C 
BRANCH  12  13
ATOM     13  C   UNL     1      32.708  18.232  -0.824  0.00  0.00    -0.053 C 
BRANCH  13  14
ATOM     14  C   UNL     1      33.231  19.643  -0.621  0.00  0.00    -0.053 C 
BRANCH  14  15
ATOM     15  C   UNL     1      34.688  19.602  -0.190  0.00  0.00    -0.053 C 
BRANCH  15  16
ATOM     16  C   UNL     1      35.214  21.014   0.011  0.00  0.00    -0.053 C 
BRANCH  16  17
ATOM     17  C   UNL     1      36.672  20.975   0.443  0.00  0.00    -0.053 C 
BRANCH  17  18
ATOM     18  C   UNL     1      37.201  22.388   0.646  0.00  0.00    -0.053 C 
BRANCH  18  19
ATOM     19  C   UNL     1      38.661  22.351   1.077  0.00  0.00    -0.053 C 
BRANCH  19  21
ATOM     20  C   UNL     1      40.656  23.721   1.713  0.00  0.00    -0.065 C 
ATOM     21  C   UNL     1      39.201  23.760   1.283  0.00  0.00    -0.056 C 
ENDBRANCH  19  21
ENDBRANCH  18  19
ENDBRANCH  17  18
ENDBRANCH  16  17
ENDBRANCH  15  16
ENDBRANCH  14  15
ENDBRANCH  13  14
ENDBRANCH  12  13
ENDBRANCH  11  12
ENDBRANCH  10  11
ENDBRANCH   9  10
ENDBRANCH   8   9
ENDBRANCH   7   8
ENDBRANCH   6   7
ENDBRANCH   5   6
ENDBRANCH   3   5
ENDBRANCH   2   3
ENDBRANCH   1   2
BRANCH   1  22
ATOM     22  C   UNL     1      23.798   9.190  -1.535  0.00  0.00    +0.099 C 
BRANCH  22  23
ATOM     23  O   UNL     1      23.633   8.684  -2.855  0.00  0.00    -0.283 OA
BRANCH  23  24
ATOM     24  P   UNL     1      22.143   8.267  -3.264  0.00  0.00    +0.475 P 
ATOM     25  O   UNL     1      21.521   7.199  -2.428  0.00  0.00    -0.227 OA
ATOM     26  O   UNL     1      22.287   7.863  -4.805  0.00  0.00    -0.302 OA
BRANCH  24  27
ATOM     27  O   UNL     1      21.375   9.665  -3.302  0.00  0.00    -0.285 OA
BRANCH  27  28
ATOM     28  C   UNL     1      20.099   9.746  -3.910  0.00  0.00    +0.071 C 
BRANCH  28  29
ATOM     29  C   UNL     1      19.679  11.216  -3.881  0.00  0.00    +0.017 C 
BRANCH  29  30
ATOM     30  N   UNL     1      20.632  12.037  -4.637  0.00  0.00    -0.328 N 
ATOM     31  H   UNL     1      21.558  11.954  -4.219  0.00  0.00    +0.000 HD
ATOM     32  H   UNL     1      20.333  13.012  -4.614  0.00  0.00    +0.000 HD
ATOM     33  H   UNL     1      20.665  11.714  -5.604  0.00  0.00    +0.000 HD
ENDBRANCH  29  30
ENDBRANCH  28  29
ENDBRANCH  27  28
ENDBRANCH  24  27
ENDBRANCH  23  24
ENDBRANCH  22  23
ENDBRANCH   1  22
BRANCH   1  34
ATOM     34  C   UNL     1      26.224   8.542  -1.607  0.00  0.00    +0.131 C 
BRANCH  34  35
ATOM     35  O   UNL     1      25.950   7.402  -0.764  0.00  0.00    -0.461 OA
BRANCH  35  36
ATOM     36  C   UNL     1      26.145   7.591   0.571  0.00  0.00    +0.307 C 
ATOM     37  O   UNL     1      26.605   8.610   1.070  0.00  0.00    -0.251 OA
BRANCH  36  38
ATOM     38  C   UNL     1      25.692   6.382   1.351  0.00  0.00    +0.045 C 
BRANCH  38  39
ATOM     39  C   UNL     1      25.151   6.765   2.727  0.00  0.00    -0.043 C 
BRANCH  39  40
ATOM     40  C   UNL     1      23.876   7.610   2.652  0.00  0.00    -0.053 C 
BRANCH  40  41
ATOM     41  C   UNL     1      23.388   7.964   4.053  0.00  0.00    -0.053 C 
BRANCH  41  42
ATOM     42  C   UNL     1      22.131   8.818   3.991  0.00  0.00    -0.053 C 
BRANCH  42  43
ATOM     43  C   UNL     1      21.653   9.168   5.396  0.00  0.00    -0.053 C 
BRANCH  43  44
ATOM     44  C   UNL     1      20.394  10.017   5.337  0.00  0.00    -0.053 C 
BRANCH  44  45
ATOM     45  C   UNL     1      19.918  10.365   6.742  0.00  0.00    -0.053 C 
BRANCH  45  46
ATOM     46  C   UNL     1      18.656  11.214   6.679  0.00  0.00    -0.053 C 
BRANCH  46  47
ATOM     47  C   UNL     1      18.178  11.566   8.081  0.00  0.00    -0.053 C 
BRANCH  47  48
ATOM     48  C   UNL     1      16.915  12.416   8.017  0.00  0.00    -0.053 C 
BRANCH  48  49
ATOM     49  C   UNL     1      16.428  12.773   9.417  0.00  0.00    -0.056 C 
ATOM     50  C   UNL     1      15.169  13.618   9.351  0.00  0.00    -0.065 C 
ENDBRANCH  48  49
ENDBRANCH  47  48
ENDBRANCH  46  47
ENDBRANCH  45  46
ENDBRANCH  44  45
ENDBRANCH  43  44
ENDBRANCH  42  43
ENDBRANCH  41  42
ENDBRANCH  40  41
ENDBRANCH  39  40
ENDBRANCH  38  39
ENDBRANCH  36  38
ENDBRANCH  35  36
ENDBRANCH  34  35
ENDBRANCH   1  34
TORSDOF 40
