REMARK  Name = 1.sdf
REMARK  1 active torsions:
REMARK  status: ('A' for Active; 'I' for Inactive)
REMARK    1  A    between atoms: C_9  and  C_10
REMARK                            x       y       z     vdW  Elec       q    Type
REMARK                         _______ _______ _______ _____ _____    ______ ____
ROOT
ATOM      1  C   UNL     1       2.212  -0.657  -0.007  0.00  0.00    -0.061 A 
ATOM      2  C   UNL     1       2.146   0.733  -0.015  0.00  0.00    -0.060 A 
ATOM      3  C   UNL     1       0.916   1.396  -0.016  0.00  0.00    -0.038 A 
ATOM      4  C   UNL     1      -0.245   0.613  -0.014  0.00  0.00    +0.047 A 
ATOM      5  C   UNL     1      -0.215  -0.784  -0.008  0.00  0.00    +0.010 A 
ATOM      6  C   UNL     1       1.042  -1.426  -0.001  0.00  0.00    -0.052 A 
ATOM      7  N   UNL     1      -1.567   0.991  -0.019  0.00  0.00    -0.360 N 
ATOM      8  C   UNL     1      -2.374  -0.113  -0.026  0.00  0.00    +0.013 A 
ATOM      9  C   UNL     1      -1.572  -1.239  -0.016  0.00  0.00    +0.039 A 
ATOM     10  H   UNL     1      -1.887   1.923  -0.018  0.00  0.00    +0.000 HD
ENDROOT
BRANCH   9  11
ATOM     11  C   UNL     1      -2.053  -2.607  -0.019  0.00  0.00    +0.152 C 
ATOM     12  O   UNL     1      -3.241  -2.917  -0.033  0.00  0.00    -0.296 OA
ENDBRANCH   9  11
TORSDOF 1
