REMARK  Name = 17a.sdf
REMARK  4 active torsions:
REMARK  status: ('A' for Active; 'I' for Inactive)
REMARK    1  A    between atoms: N_7  and  C_16
REMARK    2  A    between atoms: C_9  and  C_10
REMARK    3  A    between atoms: N_11  and  N_12
REMARK    4  A    between atoms: C_16  and  C_17
REMARK                            x       y       z     vdW  Elec       q    Type
REMARK                         _______ _______ _______ _____ _____    ______ ____
ROOT
ATOM      1  C   UNL     1      -2.127  -0.918  -0.055  0.00  0.00    -0.061 A 
ATOM      2  C   UNL     1      -2.187   0.461  -0.215  0.00  0.00    -0.060 A 
ATOM      3  C   UNL     1      -1.022   1.235  -0.259  0.00  0.00    -0.038 A 
ATOM      4  C   UNL     1       0.218   0.584  -0.135  0.00  0.00    +0.050 A 
ATOM      5  C   UNL     1       0.302  -0.811  -0.031  0.00  0.00    +0.009 A 
ATOM      6  C   UNL     1      -0.892  -1.565   0.023  0.00  0.00    -0.052 A 
ATOM      7  N   UNL     1       1.512   1.071  -0.072  0.00  0.00    -0.342 N 
ATOM      8  C   UNL     1       2.397   0.023  -0.026  0.00  0.00    +0.015 A 
ATOM      9  C   UNL     1       1.685  -1.160  -0.009  0.00  0.00    +0.020 A 
ENDROOT
BRANCH   9  10
ATOM     10  C   UNL     1       2.259  -2.489   0.020  0.00  0.00    +0.055 C 
ATOM     11  N   UNL     1       3.545  -2.619   0.023  0.00  0.00    -0.186 NA
BRANCH  11  12
ATOM     12  N   UNL     1       4.003  -3.904   0.035  0.00  0.00    -0.191 N 
ATOM     13  C   UNL     1       5.344  -4.192   0.056  0.00  0.00    +0.317 C 
ATOM     14  O   UNL     1       5.788  -5.329   0.008  0.00  0.00    -0.251 OA
ATOM     15  N   UNL     1       6.144  -3.097   0.134  0.00  0.00    -0.312 N 
ATOM     16  H   UNL     1       3.354  -4.644   0.029  0.00  0.00    +0.000 HD
ATOM     17  H   UNL     1       5.745  -2.198   0.170  0.00  0.00    +0.000 HD
ATOM     18  H   UNL     1       7.122  -3.203   0.154  0.00  0.00    +0.000 HD
ENDBRANCH  11  12
ENDBRANCH   9  10
BRANCH   7  19
ATOM     19  C   UNL     1       1.918   2.471   0.059  0.00  0.00    +0.048 C 
BRANCH  19  20
ATOM     20  C   UNL     1       2.205   3.097  -1.283  0.00  0.00    -0.028 A 
ATOM     21  C   UNL     1       1.204   3.811  -1.958  0.00  0.00    -0.056 A 
ATOM     22  C   UNL     1       1.410   4.259  -3.263  0.00  0.00    -0.047 A 
ATOM     23  C   UNL     1       2.627   4.014  -3.894  0.00  0.00    +0.018 A 
ATOM     24  C   UNL     1       3.660   3.378  -3.210  0.00  0.00    -0.047 A 
ATOM     25  C   UNL     1       3.451   2.923  -1.906  0.00  0.00    -0.056 A 
ATOM     26 BR   UNL     1       2.858   4.504  -5.704  0.00  0.00    -0.050 Br
ENDBRANCH  19  20
ENDBRANCH   7  19
TORSDOF 4
