REMARK  Name = 17e.sdf
REMARK  3 active torsions:
REMARK  status: ('A' for Active; 'I' for Inactive)
REMARK    1  A    between atoms: C_9  and  C_10
REMARK    2  A    between atoms: N_11  and  N_12
REMARK    3  A    between atoms: C_16  and  C_17
REMARK                            x       y       z     vdW  Elec       q    Type
REMARK                         _______ _______ _______ _____ _____    ______ ____
ROOT
ATOM      1  C   UNL     1      -2.122  -0.734   0.002  0.00  0.00    -0.061 A 
ATOM      2  C   UNL     1      -2.121   0.653   0.001  0.00  0.00    -0.060 A 
ATOM      3  C   UNL     1      -0.919   1.366   0.001  0.00  0.00    -0.037 A 
ATOM      4  C   UNL     1       0.300   0.656   0.001  0.00  0.00    +0.057 A 
ATOM      5  C   UNL     1       0.314  -0.746   0.001  0.00  0.00    +0.009 A 
ATOM      6  C   UNL     1      -0.917  -1.442   0.001  0.00  0.00    -0.052 A 
ATOM      7  N   UNL     1       1.628   1.112   0.001  0.00  0.00    -0.287 N 
ATOM      8  C   UNL     1       2.436  -0.010   0.001  0.00  0.00    +0.022 A 
ATOM      9  C   UNL     1       1.673  -1.161  -0.000  0.00  0.00    +0.020 A 
ATOM     10  C   UNL     1       2.039   2.468   0.001  0.00  0.00    +0.229 C 
ATOM     11  C   UNL     1       3.509   2.766  -0.001  0.00  0.00    +0.015 C 
ATOM     12  O   UNL     1       1.199   3.366   0.004  0.00  0.00    -0.273 OA
ENDROOT
BRANCH   9  13
ATOM     13  C   UNL     1       2.206  -2.510  -0.002  0.00  0.00    +0.055 C 
ATOM     14  N   UNL     1       3.493  -2.649  -0.003  0.00  0.00    -0.186 NA
BRANCH  14  15
ATOM     15  N   UNL     1       3.967  -3.931  -0.005  0.00  0.00    -0.191 N 
ATOM     16  C   UNL     1       5.317  -4.190  -0.008  0.00  0.00    +0.317 C 
ATOM     17  O   UNL     1       5.782  -5.322  -0.007  0.00  0.00    -0.251 OA
ATOM     18  N   UNL     1       6.097  -3.081  -0.010  0.00  0.00    -0.312 N 
ATOM     19  H   UNL     1       3.331  -4.682  -0.005  0.00  0.00    +0.000 HD
ATOM     20  H   UNL     1       5.683  -2.188  -0.010  0.00  0.00    +0.000 HD
ATOM     21  H   UNL     1       7.077  -3.169  -0.010  0.00  0.00    +0.000 HD
ENDBRANCH  14  15
ENDBRANCH   9  13
TORSDOF 2
