REMARK  Name = 25a.sdf
REMARK  7 active torsions:
REMARK  status: ('A' for Active; 'I' for Inactive)
REMARK    1  A    between atoms: N_7  and  C_10
REMARK    2  A    between atoms: C_9  and  C_18
REMARK    3  A    between atoms: C_10  and  C_11
REMARK    4  A    between atoms: N_19  and  N_20
REMARK    5  A    between atoms: C_21  and  C_23
REMARK    6  A    between atoms: C_25  and  O_29
REMARK    7  A    between atoms: C_27  and  O_30
REMARK                            x       y       z     vdW  Elec       q    Type
REMARK                         _______ _______ _______ _____ _____    ______ ____
ROOT
ATOM      1  C   UNL     1      -2.137  -0.928  -0.025  0.00  0.00    -0.061 A 
ATOM      2  C   UNL     1      -2.196   0.448  -0.206  0.00  0.00    -0.060 A 
ATOM      3  C   UNL     1      -1.027   1.218  -0.290  0.00  0.00    -0.038 A 
ATOM      4  C   UNL     1       0.215   0.572  -0.160  0.00  0.00    +0.050 A 
ATOM      5  C   UNL     1       0.296  -0.824  -0.040  0.00  0.00    +0.009 A 
ATOM      6  C   UNL     1      -0.901  -1.575   0.034  0.00  0.00    -0.052 A 
ATOM      7  N   UNL     1       1.514   1.056  -0.102  0.00  0.00    -0.342 N 
ATOM      8  C   UNL     1       2.392  -0.000  -0.052  0.00  0.00    +0.015 A 
ATOM      9  C   UNL     1       1.680  -1.183  -0.030  0.00  0.00    +0.020 A 
ENDROOT
BRANCH   9  10
ATOM     10  C   UNL     1       2.246  -2.520   0.006  0.00  0.00    +0.055 C 
ATOM     11  N   UNL     1       3.531  -2.676   0.008  0.00  0.00    -0.187 NA
BRANCH  11  12
ATOM     12  N   UNL     1       3.981  -3.972   0.037  0.00  0.00    -0.203 N 
ATOM     13  C   UNL     1       5.352  -4.221   0.007  0.00  0.00    +0.263 C 
ATOM     14  O   UNL     1       6.229  -3.374  -0.078  0.00  0.00    -0.268 OA
ATOM     15  H   UNL     1       3.341  -4.719   0.078  0.00  0.00    +0.000 HD
BRANCH  13  16
ATOM     16  C   UNL     1       5.751  -5.660   0.078  0.00  0.00    +0.045 A 
ATOM     17  C   UNL     1       6.960  -6.068  -0.516  0.00  0.00    -0.008 A 
ATOM     18  C   UNL     1       7.356  -7.401  -0.412  0.00  0.00    +0.121 A 
ATOM     19  C   UNL     1       6.575  -8.330   0.274  0.00  0.00    +0.021 A 
ATOM     20  C   UNL     1       5.389  -7.910   0.863  0.00  0.00    +0.121 A 
ATOM     21  C   UNL     1       4.972  -6.587   0.773  0.00  0.00    -0.008 A 
BRANCH  18  22
ATOM     22  O   UNL     1       8.522  -7.855  -0.956  0.00  0.00    -0.507 OA
ATOM     23  H   UNL     1       9.079  -7.266  -1.426  0.00  0.00    +0.000 HD
ENDBRANCH  18  22
BRANCH  20  24
ATOM     24  O   UNL     1       4.593  -8.767   1.563  0.00  0.00    -0.507 OA
ATOM     25  H   UNL     1       4.836  -9.668   1.649  0.00  0.00    +0.000 HD
ENDBRANCH  20  24
ENDBRANCH  13  16
ENDBRANCH  11  12
ENDBRANCH   9  10
BRANCH   7  26
ATOM     26  C   UNL     1       1.937   2.454   0.053  0.00  0.00    +0.048 C 
BRANCH  26  27
ATOM     27  C   UNL     1       2.215   3.118  -1.274  0.00  0.00    -0.028 A 
ATOM     28  C   UNL     1       1.206   3.840  -1.928  0.00  0.00    -0.056 A 
ATOM     29  C   UNL     1       1.385   4.277  -3.241  0.00  0.00    -0.047 A 
ATOM     30  C   UNL     1       2.588   4.026  -3.895  0.00  0.00    +0.018 A 
ATOM     31  C   UNL     1       3.643   3.415  -3.221  0.00  0.00    -0.047 A 
ATOM     32  C   UNL     1       3.457   2.964  -1.911  0.00  0.00    -0.056 A 
ATOM     33 BR   UNL     1       2.763   4.449  -5.729  0.00  0.00    -0.050 Br
ENDBRANCH  26  27
ENDBRANCH   7  26
TORSDOF 7
