MODEL 1
REMARK VINA RESULT:    -5.166      0.000      0.000
REMARK INTER + INTRA:          -5.166
REMARK INTER:                  -5.166
REMARK INTRA:                   0.000
REMARK UNBOUND:                 0.000
REMARK  Name = 0.sdf
REMARK  0 active torsions:
REMARK  status: ('A' for Active; 'I' for Inactive)
REMARK                            x       y       z     vdW  Elec       q    Type
REMARK                         _______ _______ _______ _____ _____    ______ ____
ROOT
ATOM      1  C   UNL     1      34.329  50.017  74.432  0.00  0.00    -0.061 A 
ATOM      2  C   UNL     1      33.775  49.488  73.268  0.00  0.00    -0.060 A 
ATOM      3  C   UNL     1      34.504  48.614  72.454  0.00  0.00    -0.038 A 
ATOM      4  C   UNL     1      35.809  48.299  72.850  0.00  0.00    +0.046 A 
ATOM      5  C   UNL     1      36.390  48.815  74.008  0.00  0.00    -0.000 A 
ATOM      6  C   UNL     1      35.635  49.688  74.814  0.00  0.00    -0.053 A 
ATOM      7  N   UNL     1      36.747  47.485  72.254  0.00  0.00    -0.361 N 
ATOM      8  C   UNL     1      37.903  47.477  72.990  0.00  0.00    +0.003 A 
ATOM      9  C   UNL     1      37.710  48.288  74.085  0.00  0.00    -0.037 A 
ATOM     10  H   UNL     1      36.608  46.983  71.420  0.00  0.00    +0.000 HD
ENDROOT
TORSDOF 0
ENDMDL
MODEL 2
REMARK VINA RESULT:    -5.053     12.436     13.508
REMARK INTER + INTRA:          -5.053
REMARK INTER:                  -5.053
REMARK INTRA:                   0.000
REMARK UNBOUND:                 0.000
REMARK  Name = 0.sdf
REMARK  0 active torsions:
REMARK  status: ('A' for Active; 'I' for Inactive)
REMARK                            x       y       z     vdW  Elec       q    Type
REMARK                         _______ _______ _______ _____ _____    ______ ____
ROOT
ATOM      1  C   UNL     1      38.971  57.444  80.090  0.00  0.00    -0.061 A 
ATOM      2  C   UNL     1      39.184  58.609  79.355  0.00  0.00    -0.060 A 
ATOM      3  C   UNL     1      40.204  59.503  79.699  0.00  0.00    -0.038 A 
ATOM      4  C   UNL     1      40.997  59.184  80.808  0.00  0.00    +0.046 A 
ATOM      5  C   UNL     1      40.805  58.027  81.563  0.00  0.00    -0.000 A 
ATOM      6  C   UNL     1      39.776  57.140  81.194  0.00  0.00    -0.053 A 
ATOM      7  N   UNL     1      42.052  59.865  81.373  0.00  0.00    -0.361 N 
ATOM      8  C   UNL     1      42.527  59.184  82.462  0.00  0.00    +0.003 A 
ATOM      9  C   UNL     1      41.778  58.039  82.601  0.00  0.00    -0.037 A 
ATOM     10  H   UNL     1      42.412  60.719  81.042  0.00  0.00    +0.000 HD
ENDROOT
TORSDOF 0
ENDMDL
MODEL 3
REMARK VINA RESULT:    -5.023     11.087     12.142
REMARK INTER + INTRA:          -5.023
REMARK INTER:                  -5.023
REMARK INTRA:                   0.000
REMARK UNBOUND:                 0.000
REMARK  Name = 0.sdf
REMARK  0 active torsions:
REMARK  status: ('A' for Active; 'I' for Inactive)
REMARK                            x       y       z     vdW  Elec       q    Type
REMARK                         _______ _______ _______ _____ _____    ______ ____
ROOT
ATOM      1  C   UNL     1      38.999  56.867  80.086  0.00  0.00    -0.061 A 
ATOM      2  C   UNL     1      39.395  55.584  79.714  0.00  0.00    -0.060 A 
ATOM      3  C   UNL     1      40.544  54.997  80.258  0.00  0.00    -0.038 A 
ATOM      4  C   UNL     1      41.279  55.750  81.182  0.00  0.00    +0.046 A 
ATOM      5  C   UNL     1      40.906  57.037  81.571  0.00  0.00    -0.000 A 
ATOM      6  C   UNL     1      39.743  57.603  81.015  0.00  0.00    -0.053 A 
ATOM      7  N   UNL     1      42.433  55.439  81.864  0.00  0.00    -0.361 N 
ATOM      8  C   UNL     1      42.808  56.486  82.663  0.00  0.00    +0.003 A 
ATOM      9  C   UNL     1      41.879  57.489  82.506  0.00  0.00    -0.037 A 
ATOM     10  H   UNL     1      42.919  54.586  81.789  0.00  0.00    +0.000 HD
ENDROOT
TORSDOF 0
ENDMDL
