MODEL 1
REMARK VINA RESULT:    -6.857      0.000      0.000
REMARK INTER + INTRA:          -8.181
REMARK INTER:                  -7.659
REMARK INTRA:                  -0.522
REMARK UNBOUND:                -0.522
REMARK  Name = 0a.sdf
REMARK  2 active torsions:
REMARK  status: ('A' for Active; 'I' for Inactive)
REMARK    1  A    between atoms: N_7  and  C_10
REMARK    2  A    between atoms: C_10  and  C_11
REMARK                            x       y       z     vdW  Elec       q    Type
REMARK                         _______ _______ _______ _____ _____    ______ ____
ROOT
ATOM      1  C   UNL     1      34.457  50.978  67.892  0.00  0.00    -0.061 A 
ATOM      2  C   UNL     1      33.408  51.119  68.792  0.00  0.00    -0.060 A 
ATOM      3  C   UNL     1      33.473  50.538  70.067  0.00  0.00    -0.038 A 
ATOM      4  C   UNL     1      34.624  49.816  70.418  0.00  0.00    +0.049 A 
ATOM      5  C   UNL     1      35.704  49.699  69.533  0.00  0.00    -0.000 A 
ATOM      6  C   UNL     1      35.613  50.284  68.254  0.00  0.00    -0.053 A 
ATOM      7  N   UNL     1      34.959  49.091  71.552  0.00  0.00    -0.342 N 
ATOM      8  C   UNL     1      36.242  48.608  71.434  0.00  0.00    +0.006 A 
ATOM      9  C   UNL     1      36.722  48.964  70.194  0.00  0.00    -0.036 A 
ENDROOT
BRANCH   7  10
ATOM     10  C   UNL     1      34.069  48.736  72.657  0.00  0.00    +0.048 C 
BRANCH  10  11
ATOM     11  C   UNL     1      34.049  49.797  73.728  0.00  0.00    -0.028 A 
ATOM     12  C   UNL     1      33.115  50.842  73.672  0.00  0.00    -0.056 A 
ATOM     13  C   UNL     1      33.179  51.902  74.577  0.00  0.00    -0.047 A 
ATOM     14  C   UNL     1      34.168  51.915  75.557  0.00  0.00    +0.018 A 
ATOM     15  C   UNL     1      35.058  50.850  75.676  0.00  0.00    -0.047 A 
ATOM     16  C   UNL     1      34.996  49.791  74.766  0.00  0.00    -0.056 A 
ATOM     17 BR   UNL     1      34.334  53.411  76.700  0.00  0.00    -0.050 Br
ENDBRANCH  10  11
ENDBRANCH   7  10
TORSDOF 2
ENDMDL
MODEL 2
REMARK VINA RESULT:    -6.778      2.611      5.566
REMARK INTER + INTRA:          -8.093
REMARK INTER:                  -7.525
REMARK INTRA:                  -0.568
REMARK UNBOUND:                -0.522
REMARK  Name = 0a.sdf
REMARK  2 active torsions:
REMARK  status: ('A' for Active; 'I' for Inactive)
REMARK    1  A    between atoms: N_7  and  C_10
REMARK    2  A    between atoms: C_10  and  C_11
REMARK                            x       y       z     vdW  Elec       q    Type
REMARK                         _______ _______ _______ _____ _____    ______ ____
ROOT
ATOM      1  C   UNL     1      34.468  52.042  76.026  0.00  0.00    -0.061 A 
ATOM      2  C   UNL     1      33.386  52.193  75.168  0.00  0.00    -0.060 A 
ATOM      3  C   UNL     1      33.142  51.259  74.150  0.00  0.00    -0.038 A 
ATOM      4  C   UNL     1      34.010  50.164  74.021  0.00  0.00    +0.049 A 
ATOM      5  C   UNL     1      35.083  49.983  74.904  0.00  0.00    -0.000 A 
ATOM      6  C   UNL     1      35.314  50.938  75.914  0.00  0.00    -0.053 A 
ATOM      7  N   UNL     1      34.073  49.128  73.101  0.00  0.00    -0.342 N 
ATOM      8  C   UNL     1      35.088  48.264  73.440  0.00  0.00    +0.006 A 
ATOM      9  C   UNL     1      35.732  48.772  74.546  0.00  0.00    -0.036 A 
ENDROOT
BRANCH   7  10
ATOM     10  C   UNL     1      33.302  49.011  71.863  0.00  0.00    +0.048 C 
BRANCH  10  11
ATOM     11  C   UNL     1      33.910  49.814  70.742  0.00  0.00    -0.028 A 
ATOM     12  C   UNL     1      33.392  51.074  70.413  0.00  0.00    -0.056 A 
ATOM     13  C   UNL     1      33.854  51.762  69.290  0.00  0.00    -0.047 A 
ATOM     14  C   UNL     1      34.852  51.200  68.499  0.00  0.00    +0.018 A 
ATOM     15  C   UNL     1      35.432  49.985  68.851  0.00  0.00    -0.047 A 
ATOM     16  C   UNL     1      34.965  49.294  69.974  0.00  0.00    -0.056 A 
ATOM     17 BR   UNL     1      35.387  52.071  66.909  0.00  0.00    -0.050 Br
ENDBRANCH  10  11
ENDBRANCH   7  10
TORSDOF 2
ENDMDL
MODEL 3
REMARK VINA RESULT:    -6.741      2.252      3.873
REMARK INTER + INTRA:          -8.051
REMARK INTER:                  -7.510
REMARK INTRA:                  -0.541
REMARK UNBOUND:                -0.522
REMARK  Name = 0a.sdf
REMARK  2 active torsions:
REMARK  status: ('A' for Active; 'I' for Inactive)
REMARK    1  A    between atoms: N_7  and  C_10
REMARK    2  A    between atoms: C_10  and  C_11
REMARK                            x       y       z     vdW  Elec       q    Type
REMARK                         _______ _______ _______ _____ _____    ______ ____
ROOT
ATOM      1  C   UNL     1      40.437  49.494  72.847  0.00  0.00    -0.061 A 
ATOM      2  C   UNL     1      39.869  48.966  74.000  0.00  0.00    -0.060 A 
ATOM      3  C   UNL     1      38.524  48.569  74.020  0.00  0.00    -0.038 A 
ATOM      4  C   UNL     1      37.764  48.710  72.848  0.00  0.00    +0.049 A 
ATOM      5  C   UNL     1      38.336  49.208  71.670  0.00  0.00    -0.000 A 
ATOM      6  C   UNL     1      39.688  49.608  71.675  0.00  0.00    -0.053 A 
ATOM      7  N   UNL     1      36.426  48.473  72.571  0.00  0.00    -0.342 N 
ATOM      8  C   UNL     1      36.174  48.719  71.241  0.00  0.00    +0.006 A 
ATOM      9  C   UNL     1      37.336  49.179  70.663  0.00  0.00    -0.036 A 
ENDROOT
BRANCH   7  10
ATOM     10  C   UNL     1      35.376  48.159  73.539  0.00  0.00    +0.048 C 
BRANCH  10  11
ATOM     11  C   UNL     1      34.677  49.399  74.036  0.00  0.00    -0.028 A 
ATOM     12  C   UNL     1      33.565  49.908  73.351  0.00  0.00    -0.056 A 
ATOM     13  C   UNL     1      33.001  51.129  73.719  0.00  0.00    -0.047 A 
ATOM     14  C   UNL     1      33.534  51.842  74.790  0.00  0.00    +0.018 A 
ATOM     15  C   UNL     1      34.590  51.317  75.530  0.00  0.00    -0.047 A 
ATOM     16  C   UNL     1      35.159  50.096  75.157  0.00  0.00    -0.056 A 
ATOM     17 BR   UNL     1      32.852  53.554  75.208  0.00  0.00    -0.050 Br
ENDBRANCH  10  11
ENDBRANCH   7  10
TORSDOF 2
ENDMDL
