MODEL 1
REMARK VINA RESULT:    -8.569      0.000      0.000
REMARK INTER + INTRA:         -12.464
REMARK INTER:                 -11.575
REMARK INTRA:                  -0.889
REMARK UNBOUND:                -0.889
REMARK  Name = 10a.sdf
REMARK  7 active torsions:
REMARK  status: ('A' for Active; 'I' for Inactive)
REMARK    1  A    between atoms: N_7  and  C_22
REMARK    2  A    between atoms: C_9  and  C_10
REMARK    3  A    between atoms: C_11  and  C_12
REMARK    4  A    between atoms: C_12  and  C_13
REMARK    5  A    between atoms: C_17  and  O_20
REMARK    6  A    between atoms: O_20  and  C_21
REMARK    7  A    between atoms: C_22  and  C_23
REMARK                            x       y       z     vdW  Elec       q    Type
REMARK                         _______ _______ _______ _____ _____    ______ ____
ROOT
ATOM      1  C   UNL     1      33.383  52.733  76.172  0.00  0.00    -0.061 A 
ATOM      2  C   UNL     1      34.522  51.961  76.362  0.00  0.00    -0.060 A 
ATOM      3  C   UNL     1      34.835  50.913  75.490  0.00  0.00    -0.038 A 
ATOM      4  C   UNL     1      33.973  50.663  74.410  0.00  0.00    +0.050 A 
ATOM      5  C   UNL     1      32.840  51.453  74.176  0.00  0.00    +0.007 A 
ATOM      6  C   UNL     1      32.541  52.493  75.082  0.00  0.00    -0.052 A 
ATOM      7  N   UNL     1      33.998  49.691  73.425  0.00  0.00    -0.342 N 
ATOM      8  C   UNL     1      32.960  49.894  72.543  0.00  0.00    +0.013 A 
ATOM      9  C   UNL     1      32.225  50.976  72.978  0.00  0.00    +0.000 A 
ENDROOT
BRANCH   9  10
ATOM     10  C   UNL     1      31.073  51.536  72.338  0.00  0.00    -0.049 C 
ATOM     11  C   UNL     1      29.862  50.966  72.287  0.00  0.00    -0.014 C 
BRANCH  11  12
ATOM     12  C   UNL     1      28.750  51.603  71.525  0.00  0.00    +0.186 C 
ATOM     13  O   UNL     1      28.046  52.484  71.986  0.00  0.00    -0.287 OA
BRANCH  12  14
ATOM     14  C   UNL     1      28.519  51.069  70.145  0.00  0.00    +0.022 A 
ATOM     15  C   UNL     1      29.618  50.793  69.332  0.00  0.00    -0.047 A 
ATOM     16  C   UNL     1      29.416  50.358  68.018  0.00  0.00    -0.019 A 
ATOM     17  C   UNL     1      28.128  50.177  67.514  0.00  0.00    +0.120 A 
ATOM     18  C   UNL     1      27.025  50.416  68.341  0.00  0.00    -0.019 A 
ATOM     19  C   UNL     1      27.222  50.858  69.652  0.00  0.00    -0.047 A 
BRANCH  17  20
ATOM     20  O   UNL     1      28.060  49.813  66.200  0.00  0.00    -0.495 OA
ATOM     21  C   UNL     1      27.250  50.618  65.353  0.00  0.00    +0.079 C 
ENDBRANCH  17  20
ENDBRANCH  12  14
ENDBRANCH  11  12
ENDBRANCH   9  10
BRANCH   7  22
ATOM     22  C   UNL     1      34.903  48.545  73.366  0.00  0.00    +0.048 C 
BRANCH  22  23
ATOM     23  C   UNL     1      36.281  48.939  72.895  0.00  0.00    -0.028 A 
ATOM     24  C   UNL     1      36.581  48.979  71.526  0.00  0.00    -0.056 A 
ATOM     25  C   UNL     1      37.881  49.241  71.089  0.00  0.00    -0.047 A 
ATOM     26  C   UNL     1      38.887  49.478  72.022  0.00  0.00    +0.018 A 
ATOM     27  C   UNL     1      38.598  49.494  73.384  0.00  0.00    -0.047 A 
ATOM     28  C   UNL     1      37.298  49.228  73.820  0.00  0.00    -0.056 A 
ATOM     29 BR   UNL     1      40.664  49.747  71.436  0.00  0.00    -0.050 Br
ENDBRANCH  22  23
ENDBRANCH   7  22
TORSDOF 6
ENDMDL
MODEL 2
REMARK VINA RESULT:    -8.550      1.846      3.372
REMARK INTER + INTRA:         -12.438
REMARK INTER:                 -11.225
REMARK INTRA:                  -1.213
REMARK UNBOUND:                -0.889
REMARK  Name = 10a.sdf
REMARK  7 active torsions:
REMARK  status: ('A' for Active; 'I' for Inactive)
REMARK    1  A    between atoms: N_7  and  C_22
REMARK    2  A    between atoms: C_9  and  C_10
REMARK    3  A    between atoms: C_11  and  C_12
REMARK    4  A    between atoms: C_12  and  C_13
REMARK    5  A    between atoms: C_17  and  O_20
REMARK    6  A    between atoms: O_20  and  C_21
REMARK    7  A    between atoms: C_22  and  C_23
REMARK                            x       y       z     vdW  Elec       q    Type
REMARK                         _______ _______ _______ _____ _____    ______ ____
ROOT
ATOM      1  C   UNL     1      35.553  49.818  68.980  0.00  0.00    -0.061 A 
ATOM      2  C   UNL     1      36.492  49.003  69.601  0.00  0.00    -0.060 A 
ATOM      3  C   UNL     1      36.378  48.680  70.957  0.00  0.00    -0.038 A 
ATOM      4  C   UNL     1      35.286  49.191  71.677  0.00  0.00    +0.050 A 
ATOM      5  C   UNL     1      34.307  49.982  71.062  0.00  0.00    +0.007 A 
ATOM      6  C   UNL     1      34.457  50.306  69.696  0.00  0.00    -0.052 A 
ATOM      7  N   UNL     1      34.936  49.081  73.011  0.00  0.00    -0.342 N 
ATOM      8  C   UNL     1      33.734  49.714  73.233  0.00  0.00    +0.013 A 
ATOM      9  C   UNL     1      33.317  50.282  72.048  0.00  0.00    +0.000 A 
ENDROOT
BRANCH   9  10
ATOM     10  C   UNL     1      32.105  51.014  71.835  0.00  0.00    -0.049 C 
ATOM     11  C   UNL     1      30.878  50.481  71.782  0.00  0.00    -0.014 C 
BRANCH  11  12
ATOM     12  C   UNL     1      29.690  51.329  71.477  0.00  0.00    +0.186 C 
ATOM     13  O   UNL     1      29.251  52.164  72.249  0.00  0.00    -0.287 OA
BRANCH  12  14
ATOM     14  C   UNL     1      29.030  51.073  70.157  0.00  0.00    +0.022 A 
ATOM     15  C   UNL     1      27.647  50.898  70.114  0.00  0.00    -0.047 A 
ATOM     16  C   UNL     1      27.025  50.591  68.899  0.00  0.00    -0.019 A 
ATOM     17  C   UNL     1      27.768  50.477  67.723  0.00  0.00    +0.120 A 
ATOM     18  C   UNL     1      29.150  50.692  67.758  0.00  0.00    -0.019 A 
ATOM     19  C   UNL     1      29.776  50.991  68.972  0.00  0.00    -0.047 A 
BRANCH  17  20
ATOM     20  O   UNL     1      27.058  50.112  66.617  0.00  0.00    -0.495 OA
ATOM     21  C   UNL     1      27.741  49.324  65.648  0.00  0.00    +0.079 C 
ENDBRANCH  17  20
ENDBRANCH  12  14
ENDBRANCH  11  12
ENDBRANCH   9  10
BRANCH   7  22
ATOM     22  C   UNL     1      35.752  48.489  74.071  0.00  0.00    +0.048 C 
BRANCH  22  23
ATOM     23  C   UNL     1      36.915  49.373  74.447  0.00  0.00    -0.028 A 
ATOM     24  C   UNL     1      38.219  49.042  74.051  0.00  0.00    -0.056 A 
ATOM     25  C   UNL     1      39.309  49.799  74.484  0.00  0.00    -0.047 A 
ATOM     26  C   UNL     1      39.099  50.903  75.306  0.00  0.00    +0.018 A 
ATOM     27  C   UNL     1      37.807  51.279  75.667  0.00  0.00    -0.047 A 
ATOM     28  C   UNL     1      36.718  50.518  75.236  0.00  0.00    -0.056 A 
ATOM     29 BR   UNL     1      40.580  51.877  75.963  0.00  0.00    -0.050 Br
ENDBRANCH  22  23
ENDBRANCH   7  22
TORSDOF 6
ENDMDL
MODEL 3
REMARK VINA RESULT:    -8.125      2.198      3.545
REMARK INTER + INTRA:         -11.865
REMARK INTER:                 -10.631
REMARK INTRA:                  -1.234
REMARK UNBOUND:                -0.889
REMARK  Name = 10a.sdf
REMARK  7 active torsions:
REMARK  status: ('A' for Active; 'I' for Inactive)
REMARK    1  A    between atoms: N_7  and  C_22
REMARK    2  A    between atoms: C_9  and  C_10
REMARK    3  A    between atoms: C_11  and  C_12
REMARK    4  A    between atoms: C_12  and  C_13
REMARK    5  A    between atoms: C_17  and  O_20
REMARK    6  A    between atoms: O_20  and  C_21
REMARK    7  A    between atoms: C_22  and  C_23
REMARK                            x       y       z     vdW  Elec       q    Type
REMARK                         _______ _______ _______ _____ _____    ______ ____
ROOT
ATOM      1  C   UNL     1      33.798  50.606  74.434  0.00  0.00    -0.061 A 
ATOM      2  C   UNL     1      34.910  50.161  75.138  0.00  0.00    -0.060 A 
ATOM      3  C   UNL     1      35.933  49.455  74.497  0.00  0.00    -0.038 A 
ATOM      4  C   UNL     1      35.815  49.212  73.119  0.00  0.00    +0.050 A 
ATOM      5  C   UNL     1      34.721  49.684  72.381  0.00  0.00    +0.007 A 
ATOM      6  C   UNL     1      33.696  50.379  73.059  0.00  0.00    -0.052 A 
ATOM      7  N   UNL     1      36.627  48.520  72.238  0.00  0.00    -0.342 N 
ATOM      8  C   UNL     1      36.115  48.608  70.963  0.00  0.00    +0.013 A 
ATOM      9  C   UNL     1      34.937  49.322  71.016  0.00  0.00    +0.000 A 
ENDROOT
BRANCH   9  10
ATOM     10  C   UNL     1      34.096  49.661  69.907  0.00  0.00    -0.049 C 
ATOM     11  C   UNL     1      33.895  50.899  69.439  0.00  0.00    -0.014 C 
BRANCH  11  12
ATOM     12  C   UNL     1      32.936  51.147  68.325  0.00  0.00    +0.186 C 
ATOM     13  O   UNL     1      33.288  51.401  67.186  0.00  0.00    -0.287 OA
BRANCH  12  14
ATOM     14  C   UNL     1      31.485  51.098  68.694  0.00  0.00    +0.022 A 
ATOM     15  C   UNL     1      31.127  51.124  70.041  0.00  0.00    -0.047 A 
ATOM     16  C   UNL     1      29.781  51.011  70.403  0.00  0.00    -0.019 A 
ATOM     17  C   UNL     1      28.787  50.893  69.431  0.00  0.00    +0.120 A 
ATOM     18  C   UNL     1      29.140  50.907  68.079  0.00  0.00    -0.019 A 
ATOM     19  C   UNL     1      30.485  51.012  67.713  0.00  0.00    -0.047 A 
BRANCH  17  20
ATOM     20  O   UNL     1      27.519  50.725  69.910  0.00  0.00    -0.495 OA
ATOM     21  C   UNL     1      27.325  50.953  71.301  0.00  0.00    +0.079 C 
ENDBRANCH  17  20
ENDBRANCH  12  14
ENDBRANCH  11  12
ENDBRANCH   9  10
BRANCH   7  22
ATOM     22  C   UNL     1      37.794  47.713  72.592  0.00  0.00    +0.048 C 
BRANCH  22  23
ATOM     23  C   UNL     1      39.029  48.560  72.776  0.00  0.00    -0.028 A 
ATOM     24  C   UNL     1      39.533  49.326  71.714  0.00  0.00    -0.056 A 
ATOM     25  C   UNL     1      40.732  50.028  71.849  0.00  0.00    -0.047 A 
ATOM     26  C   UNL     1      41.430  49.977  73.053  0.00  0.00    +0.018 A 
ATOM     27  C   UNL     1      40.919  49.265  74.135  0.00  0.00    -0.047 A 
ATOM     28  C   UNL     1      39.721  48.560  73.998  0.00  0.00    -0.056 A 
ATOM     29 BR   UNL     1      43.096  50.856  73.208  0.00  0.00    -0.050 Br
ENDBRANCH  22  23
ENDBRANCH   7  22
TORSDOF 6
ENDMDL
