MODEL 1
REMARK VINA RESULT:    -6.384      0.000      0.000
REMARK INTER + INTRA:          -7.967
REMARK INTER:                  -7.503
REMARK INTRA:                  -0.464
REMARK UNBOUND:                -0.464
REMARK  Name = 14e.sdf
REMARK  5 active torsions:
REMARK  status: ('A' for Active; 'I' for Inactive)
REMARK    1  A    between atoms: C_9  and  C_10
REMARK    2  A    between atoms: C_10  and  O_11
REMARK    3  A    between atoms: O_11  and  C_12
REMARK    4  A    between atoms: C_12  and  C_13
REMARK    5  A    between atoms: C_15  and  C_16
REMARK                            x       y       z     vdW  Elec       q    Type
REMARK                         _______ _______ _______ _____ _____    ______ ____
ROOT
ATOM      1  C   UNL     1      32.629  49.056  71.512  0.00  0.00    -0.061 A 
ATOM      2  C   UNL     1      31.773  50.108  71.803  0.00  0.00    -0.060 A 
ATOM      3  C   UNL     1      32.009  50.939  72.902  0.00  0.00    -0.037 A 
ATOM      4  C   UNL     1      33.130  50.692  73.722  0.00  0.00    +0.057 A 
ATOM      5  C   UNL     1      33.996  49.630  73.441  0.00  0.00    +0.007 A 
ATOM      6  C   UNL     1      33.742  48.813  72.317  0.00  0.00    -0.052 A 
ATOM      7  N   UNL     1      33.603  51.356  74.864  0.00  0.00    -0.287 N 
ATOM      8  C   UNL     1      34.748  50.686  75.276  0.00  0.00    +0.020 A 
ATOM      9  C   UNL     1      35.015  49.624  74.435  0.00  0.00    +0.015 A 
ATOM     10  C   UNL     1      33.009  52.499  75.457  0.00  0.00    +0.229 C 
ATOM     11  C   UNL     1      33.661  53.087  76.675  0.00  0.00    +0.015 C 
ATOM     12  O   UNL     1      31.989  52.985  74.978  0.00  0.00    -0.273 OA
ENDROOT
BRANCH   9  13
ATOM     13  C   UNL     1      36.163  48.667  74.531  0.00  0.00    +0.119 C 
BRANCH  13  14
ATOM     14  O   UNL     1      37.268  49.099  73.721  0.00  0.00    -0.460 OA
BRANCH  14  15
ATOM     15  C   UNL     1      37.607  48.285  72.691  0.00  0.00    +0.304 C 
ATOM     16  C   UNL     1      37.469  48.996  71.378  0.00  0.00    +0.033 C 
ATOM     17  O   UNL     1      37.988  47.126  72.787  0.00  0.00    -0.251 OA
ENDBRANCH  14  15
ENDBRANCH  13  14
ENDBRANCH   9  13
TORSDOF 3
ENDMDL
MODEL 2
REMARK VINA RESULT:    -6.278      1.363      3.382
REMARK INTER + INTRA:          -7.843
REMARK INTER:                  -7.580
REMARK INTRA:                  -0.263
REMARK UNBOUND:                -0.464
REMARK  Name = 14e.sdf
REMARK  5 active torsions:
REMARK  status: ('A' for Active; 'I' for Inactive)
REMARK    1  A    between atoms: C_9  and  C_10
REMARK    2  A    between atoms: C_10  and  O_11
REMARK    3  A    between atoms: O_11  and  C_12
REMARK    4  A    between atoms: C_12  and  C_13
REMARK    5  A    between atoms: C_15  and  C_16
REMARK                            x       y       z     vdW  Elec       q    Type
REMARK                         _______ _______ _______ _____ _____    ______ ____
ROOT
ATOM      1  C   UNL     1      34.045  52.312  76.338  0.00  0.00    -0.061 A 
ATOM      2  C   UNL     1      32.988  52.791  75.578  0.00  0.00    -0.060 A 
ATOM      3  C   UNL     1      32.586  52.130  74.414  0.00  0.00    -0.037 A 
ATOM      4  C   UNL     1      33.275  50.967  74.012  0.00  0.00    +0.057 A 
ATOM      5  C   UNL     1      34.346  50.478  74.767  0.00  0.00    +0.007 A 
ATOM      6  C   UNL     1      34.724  51.158  75.947  0.00  0.00    -0.052 A 
ATOM      7  N   UNL     1      33.087  50.115  72.912  0.00  0.00    -0.287 N 
ATOM      8  C   UNL     1      34.053  49.121  73.000  0.00  0.00    +0.020 A 
ATOM      9  C   UNL     1      34.843  49.313  74.116  0.00  0.00    +0.015 A 
ATOM     10  C   UNL     1      32.085  50.262  71.919  0.00  0.00    +0.229 C 
ATOM     11  C   UNL     1      32.025  49.246  70.815  0.00  0.00    +0.015 C 
ATOM     12  O   UNL     1      31.295  51.199  71.971  0.00  0.00    -0.273 OA
ENDROOT
BRANCH   9  13
ATOM     13  C   UNL     1      35.983  48.455  74.570  0.00  0.00    +0.119 C 
BRANCH  13  14
ATOM     14  O   UNL     1      37.246  49.038  74.214  0.00  0.00    -0.460 OA
BRANCH  14  15
ATOM     15  C   UNL     1      38.150  48.203  73.644  0.00  0.00    +0.304 C 
ATOM     16  C   UNL     1      39.550  48.676  73.895  0.00  0.00    +0.033 C 
ATOM     17  O   UNL     1      37.890  47.186  73.014  0.00  0.00    -0.251 OA
ENDBRANCH  14  15
ENDBRANCH  13  14
ENDBRANCH   9  13
TORSDOF 3
ENDMDL
MODEL 3
REMARK VINA RESULT:    -6.097      2.129      5.749
REMARK INTER + INTRA:          -7.630
REMARK INTER:                  -7.205
REMARK INTRA:                  -0.425
REMARK UNBOUND:                -0.464
REMARK  Name = 14e.sdf
REMARK  5 active torsions:
REMARK  status: ('A' for Active; 'I' for Inactive)
REMARK    1  A    between atoms: C_9  and  C_10
REMARK    2  A    between atoms: C_10  and  O_11
REMARK    3  A    between atoms: O_11  and  C_12
REMARK    4  A    between atoms: C_12  and  C_13
REMARK    5  A    between atoms: C_15  and  C_16
REMARK                            x       y       z     vdW  Elec       q    Type
REMARK                         _______ _______ _______ _____ _____    ______ ____
ROOT
ATOM      1  C   UNL     1      35.622  48.706  74.818  0.00  0.00    -0.061 A 
ATOM      2  C   UNL     1      36.419  48.159  73.823  0.00  0.00    -0.060 A 
ATOM      3  C   UNL     1      36.275  48.558  72.491  0.00  0.00    -0.037 A 
ATOM      4  C   UNL     1      35.301  49.524  72.165  0.00  0.00    +0.057 A 
ATOM      5  C   UNL     1      34.488  50.078  73.159  0.00  0.00    +0.007 A 
ATOM      6  C   UNL     1      34.662  49.667  74.500  0.00  0.00    -0.052 A 
ATOM      7  N   UNL     1      34.949  50.103  70.936  0.00  0.00    -0.287 N 
ATOM      8  C   UNL     1      33.917  50.997  71.190  0.00  0.00    +0.020 A 
ATOM      9  C   UNL     1      33.605  51.004  72.535  0.00  0.00    +0.015 A 
ATOM     10  C   UNL     1      35.557  49.817  69.687  0.00  0.00    +0.229 C 
ATOM     11  C   UNL     1      35.058  50.542  68.471  0.00  0.00    +0.015 C 
ATOM     12  O   UNL     1      36.466  48.996  69.615  0.00  0.00    -0.273 OA
ENDROOT
BRANCH   9  13
ATOM     13  C   UNL     1      32.562  51.838  73.212  0.00  0.00    +0.119 C 
BRANCH  13  14
ATOM     14  O   UNL     1      33.158  52.786  74.112  0.00  0.00    -0.460 OA
BRANCH  14  15
ATOM     15  C   UNL     1      32.695  52.773  75.386  0.00  0.00    +0.304 C 
ATOM     16  C   UNL     1      33.827  52.782  76.369  0.00  0.00    +0.033 C 
ATOM     17  O   UNL     1      31.518  52.767  75.722  0.00  0.00    -0.251 OA
ENDBRANCH  14  15
ENDBRANCH  13  14
ENDBRANCH   9  13
TORSDOF 3
ENDMDL
