MODEL 1
REMARK VINA RESULT:    -5.648      0.000      0.000
REMARK INTER + INTRA:          -8.904
REMARK INTER:                  -7.299
REMARK INTRA:                  -1.605
REMARK UNBOUND:                -1.605
REMARK  Name = 15.sdf
REMARK  6 active torsions:
REMARK  status: ('A' for Active; 'I' for Inactive)
REMARK    1  A    between atoms: C_9  and  C_10
REMARK    2  A    between atoms: C_10  and  O_11
REMARK    3  A    between atoms: O_11  and  C_12
REMARK    4  A    between atoms: C_12  and  C_13
REMARK    5  A    between atoms: C_13  and  C_15
REMARK    6  A    between atoms: C_16  and  C_17
REMARK                            x       y       z     vdW  Elec       q    Type
REMARK                         _______ _______ _______ _____ _____    ______ ____
ROOT
ATOM      1  C   UNL     1      41.630  57.980  82.587  0.00  0.00    -0.061 A 
ATOM      2  C   UNL     1      42.412  56.830  82.663  0.00  0.00    -0.060 A 
ATOM      3  C   UNL     1      42.121  55.709  81.880  0.00  0.00    -0.038 A 
ATOM      4  C   UNL     1      41.019  55.786  81.021  0.00  0.00    +0.047 A 
ATOM      5  C   UNL     1      40.215  56.922  80.924  0.00  0.00    +0.006 A 
ATOM      6  C   UNL     1      40.531  58.039  81.723  0.00  0.00    -0.052 A 
ATOM      7  N   UNL     1      40.506  54.852  80.152  0.00  0.00    -0.360 N 
ATOM      8  C   UNL     1      39.410  55.357  79.509  0.00  0.00    +0.009 A 
ATOM      9  C   UNL     1      39.186  56.643  79.966  0.00  0.00    +0.015 A 
ATOM     10  H   UNL     1      40.874  53.950  80.012  0.00  0.00    +0.000 HD
ENDROOT
BRANCH   9  11
ATOM     11  C   UNL     1      38.087  57.559  79.538  0.00  0.00    +0.120 C 
BRANCH  11  12
ATOM     12  O   UNL     1      38.438  58.337  78.381  0.00  0.00    -0.456 OA
BRANCH  12  13
ATOM     13  C   UNL     1      39.029  59.530  78.644  0.00  0.00    +0.339 C 
ATOM     14  O   UNL     1      38.570  60.406  79.366  0.00  0.00    -0.245 OA
BRANCH  13  15
ATOM     15  C   UNL     1      40.334  59.682  77.903  0.00  0.00    +0.052 C 
ATOM     16  C   UNL     1      40.364  59.827  76.567  0.00  0.00    -0.085 C 
BRANCH  15  17
ATOM     17  C   UNL     1      41.543  59.822  78.704  0.00  0.00    -0.053 C 
ATOM     18  C   UNL     1      42.557  58.959  78.878  0.00  0.00    -0.086 C 
ATOM     19  C   UNL     1      42.732  57.584  78.324  0.00  0.00    -0.047 C 
ENDBRANCH  15  17
ENDBRANCH  13  15
ENDBRANCH  12  13
ENDBRANCH  11  12
ENDBRANCH   9  11
TORSDOF 5
ENDMDL
MODEL 2
REMARK VINA RESULT:    -5.631      2.069      3.832
REMARK INTER + INTRA:          -8.882
REMARK INTER:                  -7.472
REMARK INTRA:                  -1.410
REMARK UNBOUND:                -1.605
REMARK  Name = 15.sdf
REMARK  6 active torsions:
REMARK  status: ('A' for Active; 'I' for Inactive)
REMARK    1  A    between atoms: C_9  and  C_10
REMARK    2  A    between atoms: C_10  and  O_11
REMARK    3  A    between atoms: O_11  and  C_12
REMARK    4  A    between atoms: C_12  and  C_13
REMARK    5  A    between atoms: C_13  and  C_15
REMARK    6  A    between atoms: C_16  and  C_17
REMARK                            x       y       z     vdW  Elec       q    Type
REMARK                         _______ _______ _______ _____ _____    ______ ____
ROOT
ATOM      1  C   UNL     1      43.518  58.323  78.493  0.00  0.00    -0.061 A 
ATOM      2  C   UNL     1      44.381  59.017  79.338  0.00  0.00    -0.060 A 
ATOM      3  C   UNL     1      44.437  58.727  80.705  0.00  0.00    -0.038 A 
ATOM      4  C   UNL     1      43.597  57.718  81.189  0.00  0.00    +0.047 A 
ATOM      5  C   UNL     1      42.721  57.006  80.369  0.00  0.00    +0.006 A 
ATOM      6  C   UNL     1      42.685  57.316  78.994  0.00  0.00    -0.052 A 
ATOM      7  N   UNL     1      43.441  57.231  82.465  0.00  0.00    -0.360 N 
ATOM      8  C   UNL     1      42.502  56.237  82.480  0.00  0.00    +0.009 A 
ATOM      9  C   UNL     1      42.019  56.070  81.195  0.00  0.00    +0.015 A 
ATOM     10  H   UNL     1      43.935  57.551  83.254  0.00  0.00    +0.000 HD
ENDROOT
BRANCH   9  11
ATOM     11  C   UNL     1      40.972  55.097  80.760  0.00  0.00    +0.120 C 
BRANCH  11  12
ATOM     12  O   UNL     1      39.654  55.670  80.761  0.00  0.00    -0.456 OA
BRANCH  12  13
ATOM     13  C   UNL     1      39.203  56.086  79.551  0.00  0.00    +0.339 C 
ATOM     14  O   UNL     1      39.306  55.463  78.502  0.00  0.00    -0.245 OA
BRANCH  13  15
ATOM     15  C   UNL     1      38.571  57.454  79.630  0.00  0.00    +0.052 C 
ATOM     16  C   UNL     1      37.283  57.647  79.299  0.00  0.00    -0.085 C 
BRANCH  15  17
ATOM     17  C   UNL     1      39.364  58.521  80.225  0.00  0.00    -0.053 C 
ATOM     18  C   UNL     1      39.985  59.555  79.634  0.00  0.00    -0.086 C 
ATOM     19  C   UNL     1      40.073  59.900  78.184  0.00  0.00    -0.047 C 
ENDBRANCH  15  17
ENDBRANCH  13  15
ENDBRANCH  12  13
ENDBRANCH  11  12
ENDBRANCH   9  11
TORSDOF 5
ENDMDL
MODEL 3
REMARK VINA RESULT:    -5.612     11.599     13.411
REMARK INTER + INTRA:          -8.858
REMARK INTER:                  -7.632
REMARK INTRA:                  -1.226
REMARK UNBOUND:                -1.605
REMARK  Name = 15.sdf
REMARK  6 active torsions:
REMARK  status: ('A' for Active; 'I' for Inactive)
REMARK    1  A    between atoms: C_9  and  C_10
REMARK    2  A    between atoms: C_10  and  O_11
REMARK    3  A    between atoms: O_11  and  C_12
REMARK    4  A    between atoms: C_12  and  C_13
REMARK    5  A    between atoms: C_13  and  C_15
REMARK    6  A    between atoms: C_16  and  C_17
REMARK                            x       y       z     vdW  Elec       q    Type
REMARK                         _______ _______ _______ _____ _____    ______ ____
ROOT
ATOM      1  C   UNL     1      35.259  48.412  73.857  0.00  0.00    -0.061 A 
ATOM      2  C   UNL     1      35.546  49.362  74.834  0.00  0.00    -0.060 A 
ATOM      3  C   UNL     1      34.770  50.518  74.964  0.00  0.00    -0.038 A 
ATOM      4  C   UNL     1      33.698  50.683  74.080  0.00  0.00    +0.047 A 
ATOM      5  C   UNL     1      33.385  49.751  73.089  0.00  0.00    +0.006 A 
ATOM      6  C   UNL     1      34.183  48.593  72.980  0.00  0.00    -0.052 A 
ATOM      7  N   UNL     1      32.783  51.704  73.976  0.00  0.00    -0.360 N 
ATOM      8  C   UNL     1      31.905  51.450  72.960  0.00  0.00    +0.009 A 
ATOM      9  C   UNL     1      32.248  50.247  72.373  0.00  0.00    +0.015 A 
ATOM     10  H   UNL     1      32.764  52.503  74.551  0.00  0.00    +0.000 HD
ENDROOT
BRANCH   9  11
ATOM     11  C   UNL     1      31.561  49.593  71.219  0.00  0.00    +0.120 C 
BRANCH  11  12
ATOM     12  O   UNL     1      32.467  49.267  70.152  0.00  0.00    -0.456 OA
BRANCH  12  13
ATOM     13  C   UNL     1      32.461  50.128  69.103  0.00  0.00    +0.339 C 
ATOM     14  O   UNL     1      31.459  50.589  68.569  0.00  0.00    -0.245 OA
BRANCH  13  15
ATOM     15  C   UNL     1      33.858  50.442  68.629  0.00  0.00    +0.052 C 
ATOM     16  C   UNL     1      34.144  50.535  67.320  0.00  0.00    -0.085 C 
BRANCH  15  17
ATOM     17  C   UNL     1      34.843  50.794  69.643  0.00  0.00    -0.053 C 
ATOM     18  C   UNL     1      35.839  50.055  70.158  0.00  0.00    -0.086 C 
ATOM     19  C   UNL     1      36.215  48.639  69.864  0.00  0.00    -0.047 C 
ENDBRANCH  15  17
ENDBRANCH  13  15
ENDBRANCH  12  13
ENDBRANCH  11  12
ENDBRANCH   9  11
TORSDOF 5
ENDMDL
