MODEL 1
REMARK VINA RESULT:    -7.844      0.000      0.000
REMARK INTER + INTRA:         -11.590
REMARK INTER:                 -10.137
REMARK INTRA:                  -1.453
REMARK UNBOUND:                -1.453
REMARK  Name = 15d.sdf
REMARK  5 active torsions:
REMARK  status: ('A' for Active; 'I' for Inactive)
REMARK    1  A    between atoms: C_9  and  C_10
REMARK    2  A    between atoms: C_10  and  O_11
REMARK    3  A    between atoms: O_11  and  C_12
REMARK    4  A    between atoms: C_12  and  C_13
REMARK    5  A    between atoms: C_15  and  C_16
REMARK                            x       y       z     vdW  Elec       q    Type
REMARK                         _______ _______ _______ _____ _____    ______ ____
ROOT
ATOM      1  C   UNL     1      27.233  52.358  71.179  0.00  0.00    -0.061 A 
ATOM      2  C   UNL     1      27.340  51.714  69.954  0.00  0.00    -0.060 A 
ATOM      3  C   UNL     1      28.582  51.565  69.327  0.00  0.00    -0.037 A 
ATOM      4  C   UNL     1      29.725  52.088  69.962  0.00  0.00    +0.057 A 
ATOM      5  C   UNL     1      29.634  52.738  71.201  0.00  0.00    +0.007 A 
ATOM      6  C   UNL     1      28.371  52.870  71.810  0.00  0.00    -0.052 A 
ATOM      7  N   UNL     1      31.073  52.030  69.609  0.00  0.00    -0.283 N 
ATOM      8  C   UNL     1      31.793  52.711  70.582  0.00  0.00    +0.020 A 
ATOM      9  C   UNL     1      30.950  53.131  71.588  0.00  0.00    +0.015 A 
ATOM     10  C   UNL     1      31.638  51.376  68.484  0.00  0.00    +0.263 C 
ATOM     11  O   UNL     1      30.929  51.185  67.500  0.00  0.00    -0.267 OA
ENDROOT
BRANCH  10  12
ATOM     12  C   UNL     1      33.049  50.907  68.448  0.00  0.00    +0.040 A 
ATOM     13  C   UNL     1      33.458  49.844  69.265  0.00  0.00    -0.049 A 
ATOM     14  C   UNL     1      34.793  49.445  69.276  0.00  0.00    -0.061 A 
ATOM     15  C   UNL     1      35.715  50.081  68.448  0.00  0.00    -0.062 A 
ATOM     16  C   UNL     1      35.298  51.099  67.588  0.00  0.00    -0.061 A 
ATOM     17  C   UNL     1      33.964  51.510  67.578  0.00  0.00    -0.049 A 
ENDBRANCH  10  12
BRANCH   9  18
ATOM     18  C   UNL     1      31.348  53.828  72.853  0.00  0.00    +0.120 C 
BRANCH  18  19
ATOM     19  O   UNL     1      32.577  53.306  73.385  0.00  0.00    -0.456 OA
BRANCH  19  20
ATOM     20  C   UNL     1      32.457  52.447  74.422  0.00  0.00    +0.339 C 
ATOM     21  O   UNL     1      31.775  52.608  75.420  0.00  0.00    -0.245 OA
BRANCH  20  22
ATOM     22  C   UNL     1      33.302  51.237  74.211  0.00  0.00    +0.059 A 
ATOM     23  C   UNL     1      33.024  50.416  73.108  0.00  0.00    -0.048 A 
ATOM     24  C   UNL     1      33.771  49.258  72.883  0.00  0.00    -0.061 A 
ATOM     25  C   UNL     1      34.805  48.916  73.753  0.00  0.00    -0.062 A 
ATOM     26  C   UNL     1      35.100  49.735  74.842  0.00  0.00    -0.061 A 
ATOM     27  C   UNL     1      34.352  50.894  75.073  0.00  0.00    -0.048 A 
ENDBRANCH  20  22
ENDBRANCH  19  20
ENDBRANCH  18  19
ENDBRANCH   9  18
TORSDOF 5
ENDMDL
MODEL 2
REMARK VINA RESULT:    -7.559      1.803      5.352
REMARK INTER + INTRA:         -11.221
REMARK INTER:                 -10.329
REMARK INTRA:                  -0.893
REMARK UNBOUND:                -1.453
REMARK  Name = 15d.sdf
REMARK  5 active torsions:
REMARK  status: ('A' for Active; 'I' for Inactive)
REMARK    1  A    between atoms: C_9  and  C_10
REMARK    2  A    between atoms: C_10  and  O_11
REMARK    3  A    between atoms: O_11  and  C_12
REMARK    4  A    between atoms: C_12  and  C_13
REMARK    5  A    between atoms: C_15  and  C_16
REMARK                            x       y       z     vdW  Elec       q    Type
REMARK                         _______ _______ _______ _____ _____    ______ ____
ROOT
ATOM      1  C   UNL     1      35.586  51.605  66.924  0.00  0.00    -0.061 A 
ATOM      2  C   UNL     1      34.553  52.265  66.272  0.00  0.00    -0.060 A 
ATOM      3  C   UNL     1      33.226  52.108  66.688  0.00  0.00    -0.037 A 
ATOM      4  C   UNL     1      32.957  51.260  67.779  0.00  0.00    +0.057 A 
ATOM      5  C   UNL     1      33.991  50.589  68.450  0.00  0.00    +0.007 A 
ATOM      6  C   UNL     1      35.317  50.770  68.012  0.00  0.00    -0.052 A 
ATOM      7  N   UNL     1      31.763  50.971  68.439  0.00  0.00    -0.283 N 
ATOM      8  C   UNL     1      32.050  50.066  69.453  0.00  0.00    +0.020 A 
ATOM      9  C   UNL     1      33.407  49.833  69.511  0.00  0.00    +0.015 A 
ATOM     10  C   UNL     1      30.480  51.510  68.166  0.00  0.00    +0.263 C 
ATOM     11  O   UNL     1      30.253  51.941  67.039  0.00  0.00    -0.267 OA
ENDROOT
BRANCH  10  12
ATOM     12  C   UNL     1      29.400  51.581  69.187  0.00  0.00    +0.040 A 
ATOM     13  C   UNL     1      29.476  52.518  70.227  0.00  0.00    -0.049 A 
ATOM     14  C   UNL     1      28.497  52.544  71.217  0.00  0.00    -0.061 A 
ATOM     15  C   UNL     1      27.422  51.659  71.154  0.00  0.00    -0.062 A 
ATOM     16  C   UNL     1      27.311  50.766  70.086  0.00  0.00    -0.061 A 
ATOM     17  C   UNL     1      28.295  50.729  69.095  0.00  0.00    -0.049 A 
ENDBRANCH  10  12
BRANCH   9  18
ATOM     18  C   UNL     1      34.125  48.983  70.514  0.00  0.00    +0.120 C 
BRANCH  18  19
ATOM     19  O   UNL     1      33.548  49.103  71.824  0.00  0.00    -0.456 OA
BRANCH  19  20
ATOM     20  C   UNL     1      34.403  48.980  72.864  0.00  0.00    +0.339 C 
ATOM     21  O   UNL     1      35.245  48.110  73.008  0.00  0.00    -0.245 OA
BRANCH  20  22
ATOM     22  C   UNL     1      34.181  50.060  73.867  0.00  0.00    +0.059 A 
ATOM     23  C   UNL     1      35.036  50.121  74.978  0.00  0.00    -0.048 A 
ATOM     24  C   UNL     1      34.852  51.099  75.958  0.00  0.00    -0.061 A 
ATOM     25  C   UNL     1      33.819  52.026  75.832  0.00  0.00    -0.062 A 
ATOM     26  C   UNL     1      32.976  51.984  74.722  0.00  0.00    -0.061 A 
ATOM     27  C   UNL     1      33.154  51.004  73.741  0.00  0.00    -0.048 A 
ENDBRANCH  20  22
ENDBRANCH  19  20
ENDBRANCH  18  19
ENDBRANCH   9  18
TORSDOF 5
ENDMDL
MODEL 3
REMARK VINA RESULT:    -7.329     12.959     16.232
REMARK INTER + INTRA:         -10.925
REMARK INTER:                  -9.123
REMARK INTRA:                  -1.802
REMARK UNBOUND:                -1.453
REMARK  Name = 15d.sdf
REMARK  5 active torsions:
REMARK  status: ('A' for Active; 'I' for Inactive)
REMARK    1  A    between atoms: C_9  and  C_10
REMARK    2  A    between atoms: C_10  and  O_11
REMARK    3  A    between atoms: O_11  and  C_12
REMARK    4  A    between atoms: C_12  and  C_13
REMARK    5  A    between atoms: C_15  and  C_16
REMARK                            x       y       z     vdW  Elec       q    Type
REMARK                         _______ _______ _______ _____ _____    ______ ____
ROOT
ATOM      1  C   UNL     1      46.482  60.473  75.636  0.00  0.00    -0.061 A 
ATOM      2  C   UNL     1      47.230  60.219  76.778  0.00  0.00    -0.060 A 
ATOM      3  C   UNL     1      46.605  59.908  77.990  0.00  0.00    -0.037 A 
ATOM      4  C   UNL     1      45.199  59.862  78.032  0.00  0.00    +0.057 A 
ATOM      5  C   UNL     1      44.429  60.113  76.886  0.00  0.00    +0.007 A 
ATOM      6  C   UNL     1      45.086  60.420  75.678  0.00  0.00    -0.052 A 
ATOM      7  N   UNL     1      44.325  59.522  79.065  0.00  0.00    -0.283 N 
ATOM      8  C   UNL     1      43.030  59.643  78.580  0.00  0.00    +0.020 A 
ATOM      9  C   UNL     1      43.054  59.972  77.241  0.00  0.00    +0.015 A 
ATOM     10  C   UNL     1      44.669  59.097  80.374  0.00  0.00    +0.263 C 
ATOM     11  O   UNL     1      45.764  59.421  80.827  0.00  0.00    -0.267 OA
ENDROOT
BRANCH  10  12
ATOM     12  C   UNL     1      43.765  58.270  81.217  0.00  0.00    +0.040 A 
ATOM     13  C   UNL     1      43.956  56.884  81.303  0.00  0.00    -0.049 A 
ATOM     14  C   UNL     1      43.073  56.101  82.044  0.00  0.00    -0.061 A 
ATOM     15  C   UNL     1      42.019  56.704  82.728  0.00  0.00    -0.062 A 
ATOM     16  C   UNL     1      41.863  58.091  82.696  0.00  0.00    -0.061 A 
ATOM     17  C   UNL     1      42.740  58.879  81.947  0.00  0.00    -0.049 A 
ENDBRANCH  10  12
BRANCH   9  18
ATOM     18  C   UNL     1      41.869  60.115  76.336  0.00  0.00    +0.120 C 
BRANCH  18  19
ATOM     19  O   UNL     1      40.967  59.004  76.459  0.00  0.00    -0.456 OA
BRANCH  19  20
ATOM     20  C   UNL     1      39.911  59.185  77.285  0.00  0.00    +0.339 C 
ATOM     21  O   UNL     1      39.100  60.094  77.232  0.00  0.00    -0.245 OA
BRANCH  20  22
ATOM     22  C   UNL     1      39.857  58.117  78.322  0.00  0.00    +0.059 A 
ATOM     23  C   UNL     1      40.592  56.942  78.106  0.00  0.00    -0.048 A 
ATOM     24  C   UNL     1      40.553  55.901  79.036  0.00  0.00    -0.061 A 
ATOM     25  C   UNL     1      39.785  56.030  80.192  0.00  0.00    -0.062 A 
ATOM     26  C   UNL     1      39.065  57.201  80.425  0.00  0.00    -0.061 A 
ATOM     27  C   UNL     1      39.099  58.244  79.494  0.00  0.00    -0.048 A 
ENDBRANCH  20  22
ENDBRANCH  19  20
ENDBRANCH  18  19
ENDBRANCH   9  18
TORSDOF 5
ENDMDL
