MODEL 1
REMARK VINA RESULT:    -8.080      0.000      0.000
REMARK INTER + INTRA:         -12.285
REMARK INTER:                 -10.914
REMARK INTRA:                  -1.371
REMARK UNBOUND:                -1.371
REMARK  Name = 16c.sdf
REMARK  6 active torsions:
REMARK  status: ('A' for Active; 'I' for Inactive)
REMARK    1  A    between atoms: N_7  and  C_11
REMARK    2  A    between atoms: C_9  and  C_10
REMARK    3  A    between atoms: C_10  and  O_19
REMARK    4  A    between atoms: C_11  and  C_12
REMARK    5  A    between atoms: O_19  and  C_20
REMARK    6  A    between atoms: C_20  and  C_21
REMARK                            x       y       z     vdW  Elec       q    Type
REMARK                         _______ _______ _______ _____ _____    ______ ____
ROOT
ATOM      1  C   UNL     1      34.127  51.994  75.951  0.00  0.00    -0.061 A 
ATOM      2  C   UNL     1      33.002  52.381  75.227  0.00  0.00    -0.060 A 
ATOM      3  C   UNL     1      32.594  51.670  74.091  0.00  0.00    -0.038 A 
ATOM      4  C   UNL     1      33.345  50.548  73.702  0.00  0.00    +0.050 A 
ATOM      5  C   UNL     1      34.453  50.121  74.439  0.00  0.00    +0.005 A 
ATOM      6  C   UNL     1      34.849  50.859  75.573  0.00  0.00    -0.052 A 
ATOM      7  N   UNL     1      33.217  49.680  72.633  0.00  0.00    -0.342 N 
ATOM      8  C   UNL     1      34.161  48.685  72.724  0.00  0.00    +0.011 A 
ATOM      9  C   UNL     1      34.936  48.916  73.844  0.00  0.00    +0.003 A 
ENDROOT
BRANCH   9  10
ATOM     10  C   UNL     1      36.027  48.046  74.376  0.00  0.00    +0.075 C 
BRANCH  10  11
ATOM     11  O   UNL     1      37.073  47.818  73.424  0.00  0.00    -0.371 OA
BRANCH  11  12
ATOM     12  C   UNL     1      37.643  49.029  72.939  0.00  0.00    +0.073 C 
BRANCH  12  13
ATOM     13  C   UNL     1      38.728  49.458  73.893  0.00  0.00    -0.022 A 
ATOM     14  C   UNL     1      38.547  50.582  74.712  0.00  0.00    -0.055 A 
ATOM     15  C   UNL     1      39.553  50.983  75.593  0.00  0.00    -0.043 A 
ATOM     16  C   UNL     1      40.748  50.270  75.646  0.00  0.00    +0.041 A 
ATOM     17  C   UNL     1      40.945  49.158  74.827  0.00  0.00    -0.043 A 
ATOM     18  C   UNL     1      39.941  48.760  73.947  0.00  0.00    -0.055 A 
ATOM     19 CL   UNL     1      41.990  50.764  76.730  0.00  0.00    -0.084 Cl
ENDBRANCH  12  13
ENDBRANCH  11  12
ENDBRANCH  10  11
ENDBRANCH   9  10
BRANCH   7  20
ATOM     20  C   UNL     1      32.286  49.814  71.514  0.00  0.00    +0.048 C 
BRANCH  20  21
ATOM     21  C   UNL     1      32.994  50.210  70.242  0.00  0.00    -0.028 A 
ATOM     22  C   UNL     1      33.534  51.498  70.101  0.00  0.00    -0.055 A 
ATOM     23  C   UNL     1      34.106  51.901  68.893  0.00  0.00    -0.043 A 
ATOM     24  C   UNL     1      34.153  51.015  67.820  0.00  0.00    +0.041 A 
ATOM     25  C   UNL     1      33.663  49.719  67.955  0.00  0.00    -0.043 A 
ATOM     26  C   UNL     1      33.087  49.316  69.163  0.00  0.00    -0.055 A 
ATOM     27 CL   UNL     1      34.802  51.533  66.313  0.00  0.00    -0.084 Cl
ENDBRANCH  20  21
ENDBRANCH   7  20
TORSDOF 6
ENDMDL
MODEL 2
REMARK VINA RESULT:    -7.705      3.168      8.633
REMARK INTER + INTRA:         -11.779
REMARK INTER:                 -10.449
REMARK INTRA:                  -1.330
REMARK UNBOUND:                -1.371
REMARK  Name = 16c.sdf
REMARK  6 active torsions:
REMARK  status: ('A' for Active; 'I' for Inactive)
REMARK    1  A    between atoms: N_7  and  C_11
REMARK    2  A    between atoms: C_9  and  C_10
REMARK    3  A    between atoms: C_10  and  O_19
REMARK    4  A    between atoms: C_11  and  C_12
REMARK    5  A    between atoms: O_19  and  C_20
REMARK    6  A    between atoms: C_20  and  C_21
REMARK                            x       y       z     vdW  Elec       q    Type
REMARK                         _______ _______ _______ _____ _____    ______ ____
ROOT
ATOM      1  C   UNL     1      34.419  51.707  68.489  0.00  0.00    -0.061 A 
ATOM      2  C   UNL     1      35.343  50.714  68.172  0.00  0.00    -0.060 A 
ATOM      3  C   UNL     1      35.668  49.709  69.092  0.00  0.00    -0.038 A 
ATOM      4  C   UNL     1      35.032  49.721  70.345  0.00  0.00    +0.050 A 
ATOM      5  C   UNL     1      34.072  50.684  70.666  0.00  0.00    +0.005 A 
ATOM      6  C   UNL     1      33.769  51.691  69.726  0.00  0.00    -0.052 A 
ATOM      7  N   UNL     1      35.160  48.901  71.451  0.00  0.00    -0.342 N 
ATOM      8  C   UNL     1      34.260  49.277  72.419  0.00  0.00    +0.011 A 
ATOM      9  C   UNL     1      33.553  50.372  71.959  0.00  0.00    +0.003 A 
ENDROOT
BRANCH   9  10
ATOM     10  C   UNL     1      32.420  51.061  72.645  0.00  0.00    +0.075 C 
BRANCH  10  11
ATOM     11  O   UNL     1      31.138  50.564  72.242  0.00  0.00    -0.371 OA
BRANCH  11  12
ATOM     12  C   UNL     1      30.239  51.605  71.876  0.00  0.00    +0.073 C 
BRANCH  12  13
ATOM     13  C   UNL     1      29.501  51.180  70.634  0.00  0.00    -0.022 A 
ATOM     14  C   UNL     1      30.209  50.760  69.498  0.00  0.00    -0.055 A 
ATOM     15  C   UNL     1      29.527  50.371  68.345  0.00  0.00    -0.043 A 
ATOM     16  C   UNL     1      28.135  50.412  68.318  0.00  0.00    +0.041 A 
ATOM     17  C   UNL     1      27.419  50.840  69.437  0.00  0.00    -0.043 A 
ATOM     18  C   UNL     1      28.102  51.231  70.587  0.00  0.00    -0.055 A 
ATOM     19 CL   UNL     1      27.292  49.934  66.896  0.00  0.00    -0.084 Cl
ENDBRANCH  12  13
ENDBRANCH  11  12
ENDBRANCH  10  11
ENDBRANCH   9  10
BRANCH   7  20
ATOM     20  C   UNL     1      36.148  47.839  71.633  0.00  0.00    +0.048 C 
BRANCH  20  21
ATOM     21  C   UNL     1      37.441  48.369  72.204  0.00  0.00    -0.028 A 
ATOM     22  C   UNL     1      38.361  49.034  71.379  0.00  0.00    -0.055 A 
ATOM     23  C   UNL     1      39.599  49.443  71.880  0.00  0.00    -0.043 A 
ATOM     24  C   UNL     1      39.920  49.200  73.213  0.00  0.00    +0.041 A 
ATOM     25  C   UNL     1      39.002  48.581  74.057  0.00  0.00    -0.043 A 
ATOM     26  C   UNL     1      37.765  48.169  73.555  0.00  0.00    -0.055 A 
ATOM     27 CL   UNL     1      41.469  49.649  73.813  0.00  0.00    -0.084 Cl
ENDBRANCH  20  21
ENDBRANCH   7  20
TORSDOF 6
ENDMDL
MODEL 3
REMARK VINA RESULT:    -7.660     10.519     12.728
REMARK INTER + INTRA:         -11.718
REMARK INTER:                  -9.780
REMARK INTRA:                  -1.938
REMARK UNBOUND:                -1.371
REMARK  Name = 16c.sdf
REMARK  6 active torsions:
REMARK  status: ('A' for Active; 'I' for Inactive)
REMARK    1  A    between atoms: N_7  and  C_11
REMARK    2  A    between atoms: C_9  and  C_10
REMARK    3  A    between atoms: C_10  and  O_19
REMARK    4  A    between atoms: C_11  and  C_12
REMARK    5  A    between atoms: O_19  and  C_20
REMARK    6  A    between atoms: C_20  and  C_21
REMARK                            x       y       z     vdW  Elec       q    Type
REMARK                         _______ _______ _______ _____ _____    ______ ____
ROOT
ATOM      1  C   UNL     1      37.639  60.149  79.064  0.00  0.00    -0.061 A 
ATOM      2  C   UNL     1      38.338  60.937  78.152  0.00  0.00    -0.060 A 
ATOM      3  C   UNL     1      39.412  60.414  77.420  0.00  0.00    -0.038 A 
ATOM      4  C   UNL     1      39.765  59.070  77.622  0.00  0.00    +0.050 A 
ATOM      5  C   UNL     1      39.051  58.252  78.502  0.00  0.00    +0.005 A 
ATOM      6  C   UNL     1      37.980  58.805  79.235  0.00  0.00    -0.052 A 
ATOM      7  N   UNL     1      40.774  58.292  77.085  0.00  0.00    -0.342 N 
ATOM      8  C   UNL     1      40.664  57.001  77.544  0.00  0.00    +0.011 A 
ATOM      9  C   UNL     1      39.593  56.935  78.414  0.00  0.00    +0.003 A 
ENDROOT
BRANCH   9  10
ATOM     10  C   UNL     1      39.056  55.714  79.086  0.00  0.00    +0.075 C 
BRANCH  10  11
ATOM     11  O   UNL     1      39.364  55.666  80.484  0.00  0.00    -0.371 OA
BRANCH  11  12
ATOM     12  C   UNL     1      40.671  55.163  80.739  0.00  0.00    +0.073 C 
BRANCH  12  13
ATOM     13  C   UNL     1      41.498  56.272  81.335  0.00  0.00    -0.022 A 
ATOM     14  C   UNL     1      40.892  57.473  81.734  0.00  0.00    -0.055 A 
ATOM     15  C   UNL     1      41.657  58.503  82.281  0.00  0.00    -0.043 A 
ATOM     16  C   UNL     1      43.033  58.342  82.420  0.00  0.00    +0.041 A 
ATOM     17  C   UNL     1      43.651  57.158  82.016  0.00  0.00    -0.043 A 
ATOM     18  C   UNL     1      42.886  56.131  81.467  0.00  0.00    -0.055 A 
ATOM     19 CL   UNL     1      43.979  59.612  83.094  0.00  0.00    -0.084 Cl
ENDBRANCH  12  13
ENDBRANCH  11  12
ENDBRANCH  10  11
ENDBRANCH   9  10
BRANCH   7  20
ATOM     20  C   UNL     1      41.859  58.755  76.221  0.00  0.00    +0.048 C 
BRANCH  20  21
ATOM     21  C   UNL     1      43.064  59.188  77.021  0.00  0.00    -0.028 A 
ATOM     22  C   UNL     1      44.091  59.925  76.413  0.00  0.00    -0.055 A 
ATOM     23  C   UNL     1      45.251  60.248  77.121  0.00  0.00    -0.043 A 
ATOM     24  C   UNL     1      45.385  59.845  78.447  0.00  0.00    +0.041 A 
ATOM     25  C   UNL     1      44.358  59.151  79.080  0.00  0.00    -0.043 A 
ATOM     26  C   UNL     1      43.199  58.826  78.371  0.00  0.00    -0.055 A 
ATOM     27 CL   UNL     1      46.839  60.189  79.301  0.00  0.00    -0.084 Cl
ENDBRANCH  20  21
ENDBRANCH   7  20
TORSDOF 6
ENDMDL
