MODEL 1
REMARK VINA RESULT:    -7.024      0.000      0.000
REMARK INTER + INTRA:          -8.026
REMARK INTER:                  -7.845
REMARK INTRA:                  -0.181
REMARK UNBOUND:                -0.181
REMARK  Name = 17e.sdf
REMARK  3 active torsions:
REMARK  status: ('A' for Active; 'I' for Inactive)
REMARK    1  A    between atoms: C_9  and  C_10
REMARK    2  A    between atoms: N_11  and  N_12
REMARK    3  A    between atoms: C_16  and  C_17
REMARK                            x       y       z     vdW  Elec       q    Type
REMARK                         _______ _______ _______ _____ _____    ______ ____
ROOT
ATOM      1  C   UNL     1      35.020  48.273  73.447  0.00  0.00    -0.061 A 
ATOM      2  C   UNL     1      35.873  48.775  74.419  0.00  0.00    -0.060 A 
ATOM      3  C   UNL     1      35.653  50.037  74.978  0.00  0.00    -0.037 A 
ATOM      4  C   UNL     1      34.549  50.798  74.542  0.00  0.00    +0.057 A 
ATOM      5  C   UNL     1      33.678  50.303  73.561  0.00  0.00    +0.009 A 
ATOM      6  C   UNL     1      33.924  49.023  73.012  0.00  0.00    -0.052 A 
ATOM      7  N   UNL     1      34.102  52.073  74.927  0.00  0.00    -0.287 N 
ATOM      8  C   UNL     1      32.969  52.341  74.182  0.00  0.00    +0.022 A 
ATOM      9  C   UNL     1      32.678  51.287  73.339  0.00  0.00    +0.020 A 
ATOM     10  C   UNL     1      34.712  52.907  75.897  0.00  0.00    +0.229 C 
ATOM     11  C   UNL     1      34.089  54.241  76.180  0.00  0.00    +0.015 C 
ATOM     12  O   UNL     1      35.726  52.531  76.481  0.00  0.00    -0.273 OA
ENDROOT
BRANCH   9  13
ATOM     13  C   UNL     1      31.554  51.243  72.422  0.00  0.00    +0.055 C 
ATOM     14  N   UNL     1      30.438  51.769  72.813  0.00  0.00    -0.186 NA
BRANCH  14  15
ATOM     15  N   UNL     1      29.396  51.713  71.929  0.00  0.00    -0.191 N 
ATOM     16  C   UNL     1      28.340  50.856  72.128  0.00  0.00    +0.317 C 
ATOM     17  O   UNL     1      27.388  50.778  71.363  0.00  0.00    -0.251 OA
ATOM     18  N   UNL     1      28.439  50.102  73.250  0.00  0.00    -0.312 N 
ATOM     19  H   UNL     1      29.403  52.296  71.136  0.00  0.00    +0.000 HD
ATOM     20  H   UNL     1      29.221  50.196  73.840  0.00  0.00    +0.000 HD
ATOM     21  H   UNL     1      27.727  49.461  73.476  0.00  0.00    +0.000 HD
ENDBRANCH  14  15
ENDBRANCH   9  13
TORSDOF 2
ENDMDL
MODEL 2
REMARK VINA RESULT:    -7.017      4.650      8.231
REMARK INTER + INTRA:          -8.018
REMARK INTER:                  -7.779
REMARK INTRA:                  -0.239
REMARK UNBOUND:                -0.181
REMARK  Name = 17e.sdf
REMARK  3 active torsions:
REMARK  status: ('A' for Active; 'I' for Inactive)
REMARK    1  A    between atoms: C_9  and  C_10
REMARK    2  A    between atoms: N_11  and  N_12
REMARK    3  A    between atoms: C_16  and  C_17
REMARK                            x       y       z     vdW  Elec       q    Type
REMARK                         _______ _______ _______ _____ _____    ______ ____
ROOT
ATOM      1  C   UNL     1      35.679  48.247  73.420  0.00  0.00    -0.061 A 
ATOM      2  C   UNL     1      34.637  49.039  73.880  0.00  0.00    -0.060 A 
ATOM      3  C   UNL     1      34.894  50.196  74.620  0.00  0.00    -0.037 A 
ATOM      4  C   UNL     1      36.231  50.552  74.895  0.00  0.00    +0.057 A 
ATOM      5  C   UNL     1      37.294  49.762  74.435  0.00  0.00    +0.009 A 
ATOM      6  C   UNL     1      37.005  48.596  73.688  0.00  0.00    -0.052 A 
ATOM      7  N   UNL     1      36.764  51.642  75.603  0.00  0.00    -0.287 N 
ATOM      8  C   UNL     1      38.139  51.506  75.569  0.00  0.00    +0.022 A 
ATOM      9  C   UNL     1      38.501  50.374  74.866  0.00  0.00    +0.020 A 
ATOM     10  C   UNL     1      36.016  52.672  76.225  0.00  0.00    +0.229 C 
ATOM     11  C   UNL     1      36.761  53.761  76.939  0.00  0.00    +0.015 C 
ATOM     12  O   UNL     1      34.787  52.658  76.174  0.00  0.00    -0.273 OA
ENDROOT
BRANCH   9  13
ATOM     13  C   UNL     1      39.866  49.939  74.640  0.00  0.00    +0.055 C 
ATOM     14  N   UNL     1      40.513  49.438  75.643  0.00  0.00    -0.186 NA
BRANCH  14  15
ATOM     15  N   UNL     1      41.797  49.037  75.401  0.00  0.00    -0.191 N 
ATOM     16  C   UNL     1      42.736  49.015  76.404  0.00  0.00    +0.317 C 
ATOM     17  O   UNL     1      43.894  48.659  76.230  0.00  0.00    -0.251 OA
ATOM     18  N   UNL     1      42.271  49.419  77.612  0.00  0.00    -0.312 N 
ATOM     19  H   UNL     1      42.054  48.759  74.492  0.00  0.00    +0.000 HD
ATOM     20  H   UNL     1      41.332  49.696  77.710  0.00  0.00    +0.000 HD
ATOM     21  H   UNL     1      42.873  49.434  78.390  0.00  0.00    +0.000 HD
ENDBRANCH  14  15
ENDBRANCH   9  13
TORSDOF 2
ENDMDL
MODEL 3
REMARK VINA RESULT:    -6.828      3.237      6.996
REMARK INTER + INTRA:          -7.808
REMARK INTER:                  -7.550
REMARK INTRA:                  -0.258
REMARK UNBOUND:                -0.181
REMARK  Name = 17e.sdf
REMARK  3 active torsions:
REMARK  status: ('A' for Active; 'I' for Inactive)
REMARK    1  A    between atoms: C_9  and  C_10
REMARK    2  A    between atoms: N_11  and  N_12
REMARK    3  A    between atoms: C_16  and  C_17
REMARK                            x       y       z     vdW  Elec       q    Type
REMARK                         _______ _______ _______ _____ _____    ______ ____
ROOT
ATOM      1  C   UNL     1      33.804  52.448  76.360  0.00  0.00    -0.061 A 
ATOM      2  C   UNL     1      32.643  52.730  75.655  0.00  0.00    -0.060 A 
ATOM      3  C   UNL     1      32.315  52.010  74.503  0.00  0.00    -0.037 A 
ATOM      4  C   UNL     1      33.180  50.985  74.064  0.00  0.00    +0.057 A 
ATOM      5  C   UNL     1      34.356  50.688  74.768  0.00  0.00    +0.009 A 
ATOM      6  C   UNL     1      34.663  51.433  75.930  0.00  0.00    -0.052 A 
ATOM      7  N   UNL     1      33.094  50.121  72.961  0.00  0.00    -0.287 N 
ATOM      8  C   UNL     1      34.213  49.309  73.001  0.00  0.00    +0.022 A 
ATOM      9  C   UNL     1      35.005  49.623  74.088  0.00  0.00    +0.020 A 
ATOM     10  C   UNL     1      32.052  50.103  72.001  0.00  0.00    +0.229 C 
ATOM     11  C   UNL     1      32.129  49.103  70.886  0.00  0.00    +0.015 C 
ATOM     12  O   UNL     1      31.116  50.894  72.094  0.00  0.00    -0.273 OA
ENDROOT
BRANCH   9  13
ATOM     13  C   UNL     1      36.251  48.961  74.426  0.00  0.00    +0.055 C 
ATOM     14  N   UNL     1      37.355  49.574  74.141  0.00  0.00    -0.186 NA
BRANCH  14  15
ATOM     15  N   UNL     1      38.513  48.927  74.470  0.00  0.00    -0.191 N 
ATOM     16  C   UNL     1      39.672  49.140  73.762  0.00  0.00    +0.317 C 
ATOM     17  O   UNL     1      40.729  48.583  74.026  0.00  0.00    -0.251 OA
ATOM     18  N   UNL     1      39.547  50.024  72.742  0.00  0.00    -0.312 N 
ATOM     19  H   UNL     1      38.517  48.298  75.226  0.00  0.00    +0.000 HD
ATOM     20  H   UNL     1      38.678  50.451  72.563  0.00  0.00    +0.000 HD
ATOM     21  H   UNL     1      40.326  50.240  72.181  0.00  0.00    +0.000 HD
ENDBRANCH  14  15
ENDBRANCH   9  13
TORSDOF 2
ENDMDL
