MODEL 1
REMARK VINA RESULT:    -8.237      0.000      0.000
REMARK INTER + INTRA:         -11.521
REMARK INTER:                 -10.644
REMARK INTRA:                  -0.876
REMARK UNBOUND:                -0.876
REMARK  Name = 17f.sdf
REMARK  5 active torsions:
REMARK  status: ('A' for Active; 'I' for Inactive)
REMARK    1  A    between atoms: N_7  and  C_11
REMARK    2  A    between atoms: C_9  and  C_10
REMARK    3  A    between atoms: C_11  and  C_12
REMARK    4  A    between atoms: C_12  and  C_13
REMARK    5  A    between atoms: N_21  and  N_22
REMARK                            x       y       z     vdW  Elec       q    Type
REMARK                         _______ _______ _______ _____ _____    ______ ____
ROOT
ATOM      1  C   UNL     1      36.093  51.028  75.635  0.00  0.00    -0.061 A 
ATOM      2  C   UNL     1      34.951  50.335  75.248  0.00  0.00    -0.060 A 
ATOM      3  C   UNL     1      34.994  49.385  74.221  0.00  0.00    -0.038 A 
ATOM      4  C   UNL     1      36.233  49.126  73.614  0.00  0.00    +0.050 A 
ATOM      5  C   UNL     1      37.413  49.715  74.080  0.00  0.00    +0.009 A 
ATOM      6  C   UNL     1      37.331  50.717  75.071  0.00  0.00    -0.052 A 
ATOM      7  N   UNL     1      36.584  48.346  72.528  0.00  0.00    -0.338 N 
ATOM      8  C   UNL     1      37.951  48.244  72.456  0.00  0.00    +0.015 A 
ATOM      9  C   UNL     1      38.501  49.053  73.432  0.00  0.00    +0.020 A 
ENDROOT
BRANCH   9  10
ATOM     10  C   UNL     1      39.899  49.167  73.786  0.00  0.00    +0.055 C 
ATOM     11  N   UNL     1      40.321  48.667  74.905  0.00  0.00    -0.186 NA
BRANCH  11  12
ATOM     12  N   UNL     1      41.634  48.948  75.186  0.00  0.00    -0.191 N 
ATOM     13  C   UNL     1      42.143  48.776  76.448  0.00  0.00    +0.317 C 
ATOM     14  O   UNL     1      43.269  49.132  76.770  0.00  0.00    -0.251 OA
ATOM     15  N   UNL     1      41.291  48.167  77.308  0.00  0.00    -0.312 N 
ATOM     16  H   UNL     1      42.220  49.282  74.469  0.00  0.00    +0.000 HD
ATOM     17  H   UNL     1      40.394  47.899  77.003  0.00  0.00    +0.000 HD
ATOM     18  H   UNL     1      41.569  47.993  78.236  0.00  0.00    +0.000 HD
ENDBRANCH  11  12
ENDBRANCH   9  10
BRANCH   7  19
ATOM     19  C   UNL     1      35.678  47.900  71.468  0.00  0.00    +0.086 C 
BRANCH  19  20
ATOM     20  C   UNL     1      35.429  48.915  70.376  0.00  0.00    +0.183 C 
ATOM     21  O   UNL     1      36.319  49.401  69.689  0.00  0.00    -0.290 OA
BRANCH  20  22
ATOM     22  C   UNL     1      34.008  49.331  70.116  0.00  0.00    +0.019 A 
ATOM     23  C   UNL     1      33.575  49.833  68.881  0.00  0.00    -0.050 A 
ATOM     24  C   UNL     1      32.257  50.282  68.724  0.00  0.00    -0.047 A 
ATOM     25  C   UNL     1      31.369  50.225  69.797  0.00  0.00    +0.018 A 
ATOM     26  C   UNL     1      31.771  49.687  71.014  0.00  0.00    -0.047 A 
ATOM     27  C   UNL     1      33.087  49.236  71.171  0.00  0.00    -0.050 A 
ATOM     28 BR   UNL     1      29.618  50.911  69.606  0.00  0.00    -0.050 Br
ENDBRANCH  20  22
ENDBRANCH  19  20
ENDBRANCH   7  19
TORSDOF 5
ENDMDL
MODEL 2
REMARK VINA RESULT:    -8.014      4.514      8.245
REMARK INTER + INTRA:         -11.232
REMARK INTER:                 -10.558
REMARK INTRA:                  -0.674
REMARK UNBOUND:                -0.876
REMARK  Name = 17f.sdf
REMARK  5 active torsions:
REMARK  status: ('A' for Active; 'I' for Inactive)
REMARK    1  A    between atoms: N_7  and  C_11
REMARK    2  A    between atoms: C_9  and  C_10
REMARK    3  A    between atoms: C_11  and  C_12
REMARK    4  A    between atoms: C_12  and  C_13
REMARK    5  A    between atoms: N_21  and  N_22
REMARK                            x       y       z     vdW  Elec       q    Type
REMARK                         _______ _______ _______ _____ _____    ______ ____
ROOT
ATOM      1  C   UNL     1      33.908  52.620  76.049  0.00  0.00    -0.061 A 
ATOM      2  C   UNL     1      35.185  52.074  76.120  0.00  0.00    -0.060 A 
ATOM      3  C   UNL     1      35.561  51.004  75.299  0.00  0.00    -0.038 A 
ATOM      4  C   UNL     1      34.621  50.519  74.377  0.00  0.00    +0.050 A 
ATOM      5  C   UNL     1      33.381  51.142  74.199  0.00  0.00    +0.009 A 
ATOM      6  C   UNL     1      33.004  52.175  75.084  0.00  0.00    -0.052 A 
ATOM      7  N   UNL     1      34.643  49.433  73.521  0.00  0.00    -0.338 N 
ATOM      8  C   UNL     1      33.574  49.503  72.661  0.00  0.00    +0.015 A 
ATOM      9  C   UNL     1      32.787  50.577  73.029  0.00  0.00    +0.020 A 
ENDROOT
BRANCH   9  10
ATOM     10  C   UNL     1      31.623  51.084  72.336  0.00  0.00    +0.055 C 
ATOM     11  N   UNL     1      30.546  51.355  73.005  0.00  0.00    -0.186 NA
BRANCH  11  12
ATOM     12  N   UNL     1      29.474  51.706  72.224  0.00  0.00    -0.191 N 
ATOM     13  C   UNL     1      28.323  50.960  72.219  0.00  0.00    +0.317 C 
ATOM     14  O   UNL     1      27.395  51.165  71.447  0.00  0.00    -0.251 OA
ATOM     15  N   UNL     1      28.300  49.977  73.152  0.00  0.00    -0.312 N 
ATOM     16  H   UNL     1      29.533  52.508  71.656  0.00  0.00    +0.000 HD
ATOM     17  H   UNL     1      29.072  49.849  73.751  0.00  0.00    +0.000 HD
ATOM     18  H   UNL     1      27.513  49.391  73.230  0.00  0.00    +0.000 HD
ENDBRANCH  11  12
ENDBRANCH   9  10
BRANCH   7  19
ATOM     19  C   UNL     1      35.506  48.259  73.652  0.00  0.00    +0.086 C 
BRANCH  19  20
ATOM     20  C   UNL     1      36.494  48.067  72.524  0.00  0.00    +0.183 C 
ATOM     21  O   UNL     1      36.198  47.572  71.443  0.00  0.00    -0.290 OA
BRANCH  20  22
ATOM     22  C   UNL     1      37.908  48.528  72.744  0.00  0.00    +0.019 A 
ATOM     23  C   UNL     1      38.596  48.330  73.949  0.00  0.00    -0.050 A 
ATOM     24  C   UNL     1      39.883  48.856  74.123  0.00  0.00    -0.047 A 
ATOM     25  C   UNL     1      40.487  49.574  73.092  0.00  0.00    +0.018 A 
ATOM     26  C   UNL     1      39.835  49.739  71.874  0.00  0.00    -0.047 A 
ATOM     27  C   UNL     1      38.550  49.212  71.699  0.00  0.00    -0.050 A 
ATOM     28 BR   UNL     1      42.187  50.355  73.360  0.00  0.00    -0.050 Br
ENDBRANCH  20  22
ENDBRANCH  19  20
ENDBRANCH   7  19
TORSDOF 5
ENDMDL
MODEL 3
REMARK VINA RESULT:    -7.752      1.994      2.314
REMARK INTER + INTRA:         -10.895
REMARK INTER:                 -10.428
REMARK INTRA:                  -0.467
REMARK UNBOUND:                -0.876
REMARK  Name = 17f.sdf
REMARK  5 active torsions:
REMARK  status: ('A' for Active; 'I' for Inactive)
REMARK    1  A    between atoms: N_7  and  C_11
REMARK    2  A    between atoms: C_9  and  C_10
REMARK    3  A    between atoms: C_11  and  C_12
REMARK    4  A    between atoms: C_12  and  C_13
REMARK    5  A    between atoms: N_21  and  N_22
REMARK                            x       y       z     vdW  Elec       q    Type
REMARK                         _______ _______ _______ _____ _____    ______ ____
ROOT
ATOM      1  C   UNL     1      36.709  51.863  76.027  0.00  0.00    -0.061 A 
ATOM      2  C   UNL     1      35.418  51.345  76.017  0.00  0.00    -0.060 A 
ATOM      3  C   UNL     1      35.081  50.255  75.206  0.00  0.00    -0.038 A 
ATOM      4  C   UNL     1      36.094  49.676  74.425  0.00  0.00    +0.050 A 
ATOM      5  C   UNL     1      37.424  50.097  74.524  0.00  0.00    +0.009 A 
ATOM      6  C   UNL     1      37.723  51.239  75.298  0.00  0.00    -0.052 A 
ATOM      7  N   UNL     1      36.065  48.684  73.463  0.00  0.00    -0.338 N 
ATOM      8  C   UNL     1      37.348  48.316  73.142  0.00  0.00    +0.015 A 
ATOM      9  C   UNL     1      38.222  49.149  73.813  0.00  0.00    +0.020 A 
ENDROOT
BRANCH   9  10
ATOM     10  C   UNL     1      39.665  49.052  73.851  0.00  0.00    +0.055 C 
ATOM     11  N   UNL     1      40.265  48.861  74.984  0.00  0.00    -0.186 NA
BRANCH  11  12
ATOM     12  N   UNL     1      41.634  48.913  74.910  0.00  0.00    -0.191 N 
ATOM     13  C   UNL     1      42.408  48.928  76.043  0.00  0.00    +0.317 C 
ATOM     14  O   UNL     1      43.619  49.101  76.024  0.00  0.00    -0.251 OA
ATOM     15  N   UNL     1      41.711  48.727  77.188  0.00  0.00    -0.312 N 
ATOM     16  H   UNL     1      42.069  48.942  74.027  0.00  0.00    +0.000 HD
ATOM     17  H   UNL     1      40.736  48.593  77.153  0.00  0.00    +0.000 HD
ATOM     18  H   UNL     1      42.180  48.714  78.053  0.00  0.00    +0.000 HD
ENDBRANCH  11  12
ENDBRANCH   9  10
BRANCH   7  19
ATOM     19  C   UNL     1      34.884  48.256  72.713  0.00  0.00    +0.086 C 
BRANCH  19  20
ATOM     20  C   UNL     1      33.999  49.380  72.226  0.00  0.00    +0.183 C 
ATOM     21  O   UNL     1      33.026  49.793  72.847  0.00  0.00    -0.290 OA
BRANCH  20  22
ATOM     22  C   UNL     1      34.348  50.033  70.917  0.00  0.00    +0.019 A 
ATOM     23  C   UNL     1      33.755  51.223  70.477  0.00  0.00    -0.050 A 
ATOM     24  C   UNL     1      34.060  51.738  69.210  0.00  0.00    -0.047 A 
ATOM     25  C   UNL     1      34.963  51.070  68.385  0.00  0.00    +0.018 A 
ATOM     26  C   UNL     1      35.595  49.912  68.828  0.00  0.00    -0.047 A 
ATOM     27  C   UNL     1      35.292  49.398  70.094  0.00  0.00    -0.050 A 
ATOM     28 BR   UNL     1      35.308  51.721  66.645  0.00  0.00    -0.050 Br
ENDBRANCH  20  22
ENDBRANCH  19  20
ENDBRANCH   7  19
TORSDOF 5
ENDMDL
