MODEL 1
REMARK VINA RESULT:    -7.845      0.000      0.000
REMARK INTER + INTRA:         -11.070
REMARK INTER:                 -10.138
REMARK INTRA:                  -0.932
REMARK UNBOUND:                -0.932
REMARK  Name = 17g.sdf
REMARK  6 active torsions:
REMARK  status: ('A' for Active; 'I' for Inactive)
REMARK    1  A    between atoms: N_7  and  C_16
REMARK    2  A    between atoms: C_9  and  C_10
REMARK    3  A    between atoms: N_11  and  N_12
REMARK    4  A    between atoms: C_16  and  C_17
REMARK    5  A    between atoms: C_20  and  O_23
REMARK    6  A    between atoms: O_23  and  C_24
REMARK                            x       y       z     vdW  Elec       q    Type
REMARK                         _______ _______ _______ _____ _____    ______ ____
ROOT
ATOM      1  C   UNL     1      35.794  50.922  75.717  0.00  0.00    -0.061 A 
ATOM      2  C   UNL     1      34.690  50.337  75.108  0.00  0.00    -0.060 A 
ATOM      3  C   UNL     1      34.841  49.484  74.011  0.00  0.00    -0.038 A 
ATOM      4  C   UNL     1      36.140  49.223  73.539  0.00  0.00    +0.050 A 
ATOM      5  C   UNL     1      37.268  49.764  74.166  0.00  0.00    +0.009 A 
ATOM      6  C   UNL     1      37.085  50.636  75.264  0.00  0.00    -0.052 A 
ATOM      7  N   UNL     1      36.593  48.478  72.466  0.00  0.00    -0.342 N 
ATOM      8  C   UNL     1      37.965  48.475  72.453  0.00  0.00    +0.015 A 
ATOM      9  C   UNL     1      38.424  49.258  73.494  0.00  0.00    +0.020 A 
ENDROOT
BRANCH   9  10
ATOM     10  C   UNL     1      39.812  49.499  73.825  0.00  0.00    +0.055 C 
ATOM     11  N   UNL     1      40.407  48.714  74.664  0.00  0.00    -0.186 NA
BRANCH  11  12
ATOM     12  N   UNL     1      41.711  49.027  74.934  0.00  0.00    -0.191 N 
ATOM     13  C   UNL     1      42.195  49.039  76.223  0.00  0.00    +0.317 C 
ATOM     14  O   UNL     1      43.362  49.277  76.496  0.00  0.00    -0.251 OA
ATOM     15  N   UNL     1      41.258  48.770  77.165  0.00  0.00    -0.312 N 
ATOM     16  H   UNL     1      42.318  49.247  74.190  0.00  0.00    +0.000 HD
ATOM     17  H   UNL     1      40.329  48.585  76.895  0.00  0.00    +0.000 HD
ATOM     18  H   UNL     1      41.506  48.761  78.117  0.00  0.00    +0.000 HD
ENDBRANCH  11  12
ENDBRANCH   9  10
BRANCH   7  19
ATOM     19  C   UNL     1      35.774  47.876  71.415  0.00  0.00    +0.048 C 
BRANCH  19  20
ATOM     20  C   UNL     1      35.292  48.902  70.421  0.00  0.00    -0.028 A 
ATOM     21  C   UNL     1      33.963  49.336  70.443  0.00  0.00    -0.053 A 
ATOM     22  C   UNL     1      33.479  50.180  69.443  0.00  0.00    -0.020 A 
ATOM     23  C   UNL     1      34.316  50.629  68.421  0.00  0.00    +0.120 A 
ATOM     24  C   UNL     1      35.657  50.257  68.426  0.00  0.00    -0.020 A 
ATOM     25  C   UNL     1      36.143  49.396  69.420  0.00  0.00    -0.053 A 
BRANCH  23  26
ATOM     26  O   UNL     1      33.682  51.360  67.455  0.00  0.00    -0.495 OA
ATOM     27  C   UNL     1      32.315  51.678  67.668  0.00  0.00    +0.079 C 
ENDBRANCH  23  26
ENDBRANCH  19  20
ENDBRANCH   7  19
TORSDOF 5
ENDMDL
MODEL 2
REMARK VINA RESULT:    -7.657      3.994      7.851
REMARK INTER + INTRA:         -10.827
REMARK INTER:                 -10.211
REMARK INTRA:                  -0.616
REMARK UNBOUND:                -0.932
REMARK  Name = 17g.sdf
REMARK  6 active torsions:
REMARK  status: ('A' for Active; 'I' for Inactive)
REMARK    1  A    between atoms: N_7  and  C_16
REMARK    2  A    between atoms: C_9  and  C_10
REMARK    3  A    between atoms: N_11  and  N_12
REMARK    4  A    between atoms: C_16  and  C_17
REMARK    5  A    between atoms: C_20  and  O_23
REMARK    6  A    between atoms: O_23  and  C_24
REMARK                            x       y       z     vdW  Elec       q    Type
REMARK                         _______ _______ _______ _____ _____    ______ ____
ROOT
ATOM      1  C   UNL     1      33.518  52.812  75.817  0.00  0.00    -0.061 A 
ATOM      2  C   UNL     1      34.683  52.148  76.183  0.00  0.00    -0.060 A 
ATOM      3  C   UNL     1      35.089  50.987  75.519  0.00  0.00    -0.038 A 
ATOM      4  C   UNL     1      34.293  50.506  74.464  0.00  0.00    +0.050 A 
ATOM      5  C   UNL     1      33.141  51.185  74.049  0.00  0.00    +0.009 A 
ATOM      6  C   UNL     1      32.746  52.348  74.749  0.00  0.00    -0.052 A 
ATOM      7  N   UNL     1      34.406  49.380  73.670  0.00  0.00    -0.342 N 
ATOM      8  C   UNL     1      33.409  49.378  72.726  0.00  0.00    +0.015 A 
ATOM      9  C   UNL     1      32.605  50.484  72.924  0.00  0.00    +0.020 A 
ENDROOT
BRANCH   9  10
ATOM     10  C   UNL     1      31.451  50.845  72.129  0.00  0.00    +0.055 C 
ATOM     11  N   UNL     1      30.431  51.394  72.707  0.00  0.00    -0.186 NA
BRANCH  11  12
ATOM     12  N   UNL     1      29.378  51.683  71.884  0.00  0.00    -0.191 N 
ATOM     13  C   UNL     1      28.163  51.050  72.022  0.00  0.00    +0.317 C 
ATOM     14  O   UNL     1      27.191  51.310  71.330  0.00  0.00    -0.251 OA
ATOM     15  N   UNL     1      28.144  50.104  72.993  0.00  0.00    -0.312 N 
ATOM     16  H   UNL     1      29.490  52.360  71.177  0.00  0.00    +0.000 HD
ATOM     17  H   UNL     1      28.953  49.929  73.526  0.00  0.00    +0.000 HD
ATOM     18  H   UNL     1      27.321  49.592  73.166  0.00  0.00    +0.000 HD
ENDBRANCH  11  12
ENDBRANCH   9  10
BRANCH   7  19
ATOM     19  C   UNL     1      35.348  48.277  73.851  0.00  0.00    +0.048 C 
BRANCH  19  20
ATOM     20  C   UNL     1      36.646  48.522  73.127  0.00  0.00    -0.028 A 
ATOM     21  C   UNL     1      37.836  48.680  73.845  0.00  0.00    -0.053 A 
ATOM     22  C   UNL     1      39.014  49.042  73.190  0.00  0.00    -0.020 A 
ATOM     23  C   UNL     1      39.035  49.223  71.806  0.00  0.00    +0.120 A 
ATOM     24  C   UNL     1      37.872  49.003  71.073  0.00  0.00    -0.020 A 
ATOM     25  C   UNL     1      36.683  48.656  71.730  0.00  0.00    -0.053 A 
BRANCH  23  26
ATOM     26  O   UNL     1      40.226  49.679  71.317  0.00  0.00    -0.495 OA
ATOM     27  C   UNL     1      40.764  50.857  71.899  0.00  0.00    +0.079 C 
ENDBRANCH  23  26
ENDBRANCH  19  20
ENDBRANCH   7  19
TORSDOF 5
ENDMDL
MODEL 3
REMARK VINA RESULT:    -7.497      3.541      7.688
REMARK INTER + INTRA:         -10.621
REMARK INTER:                  -9.732
REMARK INTRA:                  -0.890
REMARK UNBOUND:                -0.932
REMARK  Name = 17g.sdf
REMARK  6 active torsions:
REMARK  status: ('A' for Active; 'I' for Inactive)
REMARK    1  A    between atoms: N_7  and  C_16
REMARK    2  A    between atoms: C_9  and  C_10
REMARK    3  A    between atoms: N_11  and  N_12
REMARK    4  A    between atoms: C_16  and  C_17
REMARK    5  A    between atoms: C_20  and  O_23
REMARK    6  A    between atoms: O_23  and  C_24
REMARK                            x       y       z     vdW  Elec       q    Type
REMARK                         _______ _______ _______ _____ _____    ______ ____
ROOT
ATOM      1  C   UNL     1      32.996  52.545  75.551  0.00  0.00    -0.061 A 
ATOM      2  C   UNL     1      34.183  52.007  76.033  0.00  0.00    -0.060 A 
ATOM      3  C   UNL     1      34.773  50.899  75.418  0.00  0.00    -0.038 A 
ATOM      4  C   UNL     1      34.140  50.342  74.293  0.00  0.00    +0.050 A 
ATOM      5  C   UNL     1      32.969  50.897  73.762  0.00  0.00    +0.009 A 
ATOM      6  C   UNL     1      32.386  52.008  74.414  0.00  0.00    -0.052 A 
ATOM      7  N   UNL     1      34.449  49.239  73.519  0.00  0.00    -0.342 N 
ATOM      8  C   UNL     1      33.556  49.136  72.483  0.00  0.00    +0.015 A 
ATOM      9  C   UNL     1      32.624  50.149  72.595  0.00  0.00    +0.020 A 
ENDROOT
BRANCH   9  10
ATOM     10  C   UNL     1      31.522  50.389  71.688  0.00  0.00    +0.055 C 
ATOM     11  N   UNL     1      31.489  49.766  70.554  0.00  0.00    -0.186 NA
BRANCH  11  12
ATOM     12  N   UNL     1      30.424  50.068  69.751  0.00  0.00    -0.191 N 
ATOM     13  C   UNL     1      30.591  50.375  68.420  0.00  0.00    +0.317 C 
ATOM     14  O   UNL     1      29.660  50.613  67.665  0.00  0.00    -0.251 OA
ATOM     15  N   UNL     1      31.887  50.398  68.020  0.00  0.00    -0.312 N 
ATOM     16  H   UNL     1      29.516  50.066  70.133  0.00  0.00    +0.000 HD
ATOM     17  H   UNL     1      32.604  50.199  68.665  0.00  0.00    +0.000 HD
ATOM     18  H   UNL     1      32.110  50.612  67.086  0.00  0.00    +0.000 HD
ENDBRANCH  11  12
ENDBRANCH   9  10
BRANCH   7  19
ATOM     19  C   UNL     1      35.481  48.240  73.798  0.00  0.00    +0.048 C 
BRANCH  19  20
ATOM     20  C   UNL     1      36.808  48.620  73.195  0.00  0.00    -0.028 A 
ATOM     21  C   UNL     1      37.781  49.256  73.972  0.00  0.00    -0.053 A 
ATOM     22  C   UNL     1      38.955  49.730  73.384  0.00  0.00    -0.020 A 
ATOM     23  C   UNL     1      39.194  49.554  72.021  0.00  0.00    +0.120 A 
ATOM     24  C   UNL     1      38.262  48.863  71.251  0.00  0.00    -0.020 A 
ATOM     25  C   UNL     1      37.074  48.400  71.834  0.00  0.00    -0.053 A 
BRANCH  23  26
ATOM     26  O   UNL     1      40.330  50.162  71.566  0.00  0.00    -0.495 OA
ATOM     27  C   UNL     1      41.478  50.110  72.399  0.00  0.00    +0.079 C 
ENDBRANCH  23  26
ENDBRANCH  19  20
ENDBRANCH   7  19
TORSDOF 5
ENDMDL
