MODEL 1
REMARK VINA RESULT:    -8.241      0.000      0.000
REMARK INTER + INTRA:         -12.115
REMARK INTER:                 -11.132
REMARK INTRA:                  -0.983
REMARK UNBOUND:                -0.983
REMARK  Name = 22a.sdf
REMARK  7 active torsions:
REMARK  status: ('A' for Active; 'I' for Inactive)
REMARK    1  A    between atoms: N_7  and  C_12
REMARK    2  A    between atoms: C_9  and  C_10
REMARK    3  A    between atoms: N_11  and  N_19
REMARK    4  A    between atoms: C_12  and  C_13
REMARK    5  A    between atoms: C_20  and  C_22
REMARK    6  A    between atoms: C_25  and  O_29
REMARK    7  A    between atoms: O_29  and  C_30
REMARK                            x       y       z     vdW  Elec       q    Type
REMARK                         _______ _______ _______ _____ _____    ______ ____
ROOT
ATOM      1  C   UNL     1      41.866  51.368  71.857  0.00  0.00    -0.061 A 
ATOM      2  C   UNL     1      41.196  50.419  71.095  0.00  0.00    -0.060 A 
ATOM      3  C   UNL     1      40.126  49.694  71.628  0.00  0.00    -0.038 A 
ATOM      4  C   UNL     1      39.735  49.954  72.953  0.00  0.00    +0.050 A 
ATOM      5  C   UNL     1      40.366  50.940  73.725  0.00  0.00    +0.009 A 
ATOM      6  C   UNL     1      41.457  51.643  73.165  0.00  0.00    -0.052 A 
ATOM      7  N   UNL     1      38.766  49.377  73.752  0.00  0.00    -0.342 N 
ATOM      8  C   UNL     1      38.720  50.022  74.964  0.00  0.00    +0.015 A 
ATOM      9  C   UNL     1      39.691  51.005  74.984  0.00  0.00    +0.020 A 
ENDROOT
BRANCH   9  10
ATOM     10  C   UNL     1      39.957  51.916  76.075  0.00  0.00    +0.055 C 
ATOM     11  N   UNL     1      39.429  53.100  76.070  0.00  0.00    -0.187 NA
BRANCH  11  12
ATOM     12  N   UNL     1      39.738  53.903  77.135  0.00  0.00    -0.203 N 
ATOM     13  C   UNL     1      38.736  54.653  77.732  0.00  0.00    +0.263 C 
ATOM     14  O   UNL     1      37.557  54.654  77.396  0.00  0.00    -0.268 OA
ATOM     15  H   UNL     1      40.661  53.948  77.474  0.00  0.00    +0.000 HD
BRANCH  13  16
ATOM     16  C   UNL     1      39.150  55.482  78.904  0.00  0.00    +0.039 A 
ATOM     17  C   UNL     1      38.489  56.659  79.267  0.00  0.00    -0.046 A 
ATOM     18  C   UNL     1      38.938  57.397  80.367  0.00  0.00    -0.019 A 
ATOM     19  C   UNL     1      40.026  56.961  81.129  0.00  0.00    +0.120 A 
ATOM     20  C   UNL     1      40.673  55.776  80.781  0.00  0.00    -0.019 A 
ATOM     21  C   UNL     1      40.234  55.039  79.674  0.00  0.00    -0.046 A 
BRANCH  19  22
ATOM     22  O   UNL     1      40.392  57.796  82.148  0.00  0.00    -0.495 OA
ATOM     23  C   UNL     1      41.777  57.837  82.466  0.00  0.00    +0.079 C 
ENDBRANCH  19  22
ENDBRANCH  13  16
ENDBRANCH  11  12
ENDBRANCH   9  10
BRANCH   7  24
ATOM     24  C   UNL     1      37.969  48.194  73.430  0.00  0.00    +0.048 C 
BRANCH  24  25
ATOM     25  C   UNL     1      36.605  48.566  72.905  0.00  0.00    -0.028 A 
ATOM     26  C   UNL     1      35.493  48.588  73.759  0.00  0.00    -0.056 A 
ATOM     27  C   UNL     1      34.212  48.814  73.252  0.00  0.00    -0.047 A 
ATOM     28  C   UNL     1      34.038  49.033  71.888  0.00  0.00    +0.018 A 
ATOM     29  C   UNL     1      35.137  49.072  71.033  0.00  0.00    -0.047 A 
ATOM     30  C   UNL     1      36.417  48.840  71.540  0.00  0.00    -0.056 A 
ATOM     31 BR   UNL     1      32.295  49.241  71.188  0.00  0.00    -0.050 Br
ENDBRANCH  24  25
ENDBRANCH   7  24
TORSDOF 6
ENDMDL
MODEL 2
REMARK VINA RESULT:    -8.090      4.710      9.090
REMARK INTER + INTRA:         -11.912
REMARK INTER:                 -10.925
REMARK INTRA:                  -0.987
REMARK UNBOUND:                -0.983
REMARK  Name = 22a.sdf
REMARK  7 active torsions:
REMARK  status: ('A' for Active; 'I' for Inactive)
REMARK    1  A    between atoms: N_7  and  C_12
REMARK    2  A    between atoms: C_9  and  C_10
REMARK    3  A    between atoms: N_11  and  N_19
REMARK    4  A    between atoms: C_12  and  C_13
REMARK    5  A    between atoms: C_20  and  C_22
REMARK    6  A    between atoms: C_25  and  O_29
REMARK    7  A    between atoms: O_29  and  C_30
REMARK                            x       y       z     vdW  Elec       q    Type
REMARK                         _______ _______ _______ _____ _____    ______ ____
ROOT
ATOM      1  C   UNL     1      40.189  52.607  74.934  0.00  0.00    -0.061 A 
ATOM      2  C   UNL     1      39.389  51.948  75.860  0.00  0.00    -0.060 A 
ATOM      3  C   UNL     1      38.754  50.746  75.535  0.00  0.00    -0.038 A 
ATOM      4  C   UNL     1      38.950  50.211  74.250  0.00  0.00    +0.050 A 
ATOM      5  C   UNL     1      39.790  50.834  73.315  0.00  0.00    +0.009 A 
ATOM      6  C   UNL     1      40.403  52.058  73.666  0.00  0.00    -0.052 A 
ATOM      7  N   UNL     1      38.428  49.089  73.634  0.00  0.00    -0.342 N 
ATOM      8  C   UNL     1      38.973  48.950  72.382  0.00  0.00    +0.015 A 
ATOM      9  C   UNL     1      39.831  50.008  72.148  0.00  0.00    +0.020 A 
ENDROOT
BRANCH   9  10
ATOM     10  C   UNL     1      40.613  50.221  70.950  0.00  0.00    +0.055 C 
ATOM     11  N   UNL     1      41.903  50.102  70.994  0.00  0.00    -0.187 NA
BRANCH  11  12
ATOM     12  N   UNL     1      42.569  50.329  69.819  0.00  0.00    -0.203 N 
ATOM     13  C   UNL     1      43.176  51.559  69.611  0.00  0.00    +0.263 C 
ATOM     14  O   UNL     1      43.186  52.488  70.410  0.00  0.00    -0.268 OA
ATOM     15  H   UNL     1      42.618  49.628  69.130  0.00  0.00    +0.000 HD
BRANCH  13  16
ATOM     16  C   UNL     1      43.904  51.716  68.316  0.00  0.00    +0.039 A 
ATOM     17  C   UNL     1      45.261  51.412  68.172  0.00  0.00    -0.046 A 
ATOM     18  C   UNL     1      45.887  51.597  66.934  0.00  0.00    -0.019 A 
ATOM     19  C   UNL     1      45.168  52.056  65.827  0.00  0.00    +0.120 A 
ATOM     20  C   UNL     1      43.810  52.340  65.964  0.00  0.00    -0.019 A 
ATOM     21  C   UNL     1      43.181  52.167  67.203  0.00  0.00    -0.046 A 
BRANCH  19  22
ATOM     22  O   UNL     1      45.906  52.237  64.690  0.00  0.00    -0.495 OA
ATOM     23  C   UNL     1      46.173  53.582  64.316  0.00  0.00    +0.079 C 
ENDBRANCH  19  22
ENDBRANCH  13  16
ENDBRANCH  11  12
ENDBRANCH   9  10
BRANCH   7  24
ATOM     24  C   UNL     1      37.376  48.221  74.164  0.00  0.00    +0.048 C 
BRANCH  24  25
ATOM     25  C   UNL     1      36.004  48.696  73.759  0.00  0.00    -0.028 A 
ATOM     26  C   UNL     1      35.440  48.293  72.539  0.00  0.00    -0.056 A 
ATOM     27  C   UNL     1      34.224  48.826  72.108  0.00  0.00    -0.047 A 
ATOM     28  C   UNL     1      33.556  49.754  72.902  0.00  0.00    +0.018 A 
ATOM     29  C   UNL     1      34.071  50.122  74.143  0.00  0.00    -0.047 A 
ATOM     30  C   UNL     1      35.291  49.593  74.571  0.00  0.00    -0.056 A 
ATOM     31 BR   UNL     1      31.960  50.548  72.275  0.00  0.00    -0.050 Br
ENDBRANCH  24  25
ENDBRANCH   7  24
TORSDOF 6
ENDMDL
MODEL 3
REMARK VINA RESULT:    -8.017      5.059     11.191
REMARK INTER + INTRA:         -11.812
REMARK INTER:                 -11.102
REMARK INTRA:                  -0.710
REMARK UNBOUND:                -0.983
REMARK  Name = 22a.sdf
REMARK  7 active torsions:
REMARK  status: ('A' for Active; 'I' for Inactive)
REMARK    1  A    between atoms: N_7  and  C_12
REMARK    2  A    between atoms: C_9  and  C_10
REMARK    3  A    between atoms: N_11  and  N_19
REMARK    4  A    between atoms: C_12  and  C_13
REMARK    5  A    between atoms: C_20  and  C_22
REMARK    6  A    between atoms: C_25  and  O_29
REMARK    7  A    between atoms: O_29  and  C_30
REMARK                            x       y       z     vdW  Elec       q    Type
REMARK                         _______ _______ _______ _____ _____    ______ ____
ROOT
ATOM      1  C   UNL     1      37.008  59.385  77.431  0.00  0.00    -0.061 A 
ATOM      2  C   UNL     1      37.670  60.136  78.395  0.00  0.00    -0.060 A 
ATOM      3  C   UNL     1      38.459  59.518  79.370  0.00  0.00    -0.038 A 
ATOM      4  C   UNL     1      38.578  58.118  79.347  0.00  0.00    +0.050 A 
ATOM      5  C   UNL     1      37.958  57.344  78.355  0.00  0.00    +0.009 A 
ATOM      6  C   UNL     1      37.151  57.995  77.395  0.00  0.00    -0.052 A 
ATOM      7  N   UNL     1      39.234  57.239  80.189  0.00  0.00    -0.342 N 
ATOM      8  C   UNL     1      39.109  55.958  79.711  0.00  0.00    +0.015 A 
ATOM      9  C   UNL     1      38.332  55.980  78.569  0.00  0.00    +0.020 A 
ENDROOT
BRANCH   9  10
ATOM     10  C   UNL     1      37.978  54.836  77.759  0.00  0.00    +0.055 C 
ATOM     11  N   UNL     1      36.760  54.391  77.770  0.00  0.00    -0.187 NA
BRANCH  11  12
ATOM     12  N   UNL     1      36.510  53.300  76.982  0.00  0.00    -0.203 N 
ATOM     13  C   UNL     1      35.203  53.014  76.614  0.00  0.00    +0.263 C 
ATOM     14  O   UNL     1      34.219  53.676  76.925  0.00  0.00    -0.268 OA
ATOM     15  H   UNL     1      37.249  52.724  76.679  0.00  0.00    +0.000 HD
BRANCH  13  16
ATOM     16  C   UNL     1      35.019  51.822  75.732  0.00  0.00    +0.039 A 
ATOM     17  C   UNL     1      35.970  50.802  75.634  0.00  0.00    -0.046 A 
ATOM     18  C   UNL     1      35.742  49.720  74.777  0.00  0.00    -0.019 A 
ATOM     19  C   UNL     1      34.561  49.628  74.035  0.00  0.00    +0.120 A 
ATOM     20  C   UNL     1      33.603  50.633  74.148  0.00  0.00    -0.019 A 
ATOM     21  C   UNL     1      33.830  51.724  74.996  0.00  0.00    -0.046 A 
BRANCH  19  22
ATOM     22  O   UNL     1      34.482  48.546  73.203  0.00  0.00    -0.495 OA
ATOM     23  C   UNL     1      35.673  48.192  72.510  0.00  0.00    +0.079 C 
ENDBRANCH  19  22
ENDBRANCH  13  16
ENDBRANCH  11  12
ENDBRANCH   9  10
BRANCH   7  24
ATOM     24  C   UNL     1      39.881  57.575  81.457  0.00  0.00    +0.048 C 
BRANCH  24  25
ATOM     25  C   UNL     1      41.364  57.783  81.290  0.00  0.00    -0.028 A 
ATOM     26  C   UNL     1      42.143  58.263  82.354  0.00  0.00    -0.056 A 
ATOM     27  C   UNL     1      43.492  58.569  82.166  0.00  0.00    -0.047 A 
ATOM     28  C   UNL     1      44.074  58.383  80.915  0.00  0.00    +0.018 A 
ATOM     29  C   UNL     1      43.332  57.852  79.863  0.00  0.00    -0.047 A 
ATOM     30  C   UNL     1      41.981  57.552  80.050  0.00  0.00    -0.056 A 
ATOM     31 BR   UNL     1      45.874  58.889  80.635  0.00  0.00    -0.050 Br
ENDBRANCH  24  25
ENDBRANCH   7  24
TORSDOF 6
ENDMDL
