MODEL 1
REMARK VINA RESULT:    -8.559      0.000      0.000
REMARK INTER + INTRA:         -12.186
REMARK INTER:                 -11.312
REMARK INTRA:                  -0.874
REMARK UNBOUND:                -0.874
REMARK  Name = 24a.sdf
REMARK  6 active torsions:
REMARK  status: ('A' for Active; 'I' for Inactive)
REMARK    1  A    between atoms: N_7  and  C_10
REMARK    2  A    between atoms: C_9  and  C_18
REMARK    3  A    between atoms: C_10  and  C_11
REMARK    4  A    between atoms: N_19  and  N_20
REMARK    5  A    between atoms: C_21  and  C_23
REMARK    6  A    between atoms: C_26  and  O_29
REMARK                            x       y       z     vdW  Elec       q    Type
REMARK                         _______ _______ _______ _____ _____    ______ ____
ROOT
ATOM      1  C   UNL     1      33.661  50.785  74.497  0.00  0.00    -0.061 A 
ATOM      2  C   UNL     1      34.865  50.417  75.078  0.00  0.00    -0.060 A 
ATOM      3  C   UNL     1      35.852  49.741  74.342  0.00  0.00    -0.038 A 
ATOM      4  C   UNL     1      35.577  49.402  72.996  0.00  0.00    +0.050 A 
ATOM      5  C   UNL     1      34.390  49.824  72.380  0.00  0.00    +0.009 A 
ATOM      6  C   UNL     1      33.426  50.522  73.146  0.00  0.00    -0.052 A 
ATOM      7  N   UNL     1      36.282  48.658  72.065  0.00  0.00    -0.342 N 
ATOM      8  C   UNL     1      35.613  48.697  70.860  0.00  0.00    +0.015 A 
ATOM      9  C   UNL     1      34.451  49.430  71.006  0.00  0.00    +0.020 A 
ENDROOT
BRANCH   9  10
ATOM     10  C   UNL     1      33.491  49.730  69.961  0.00  0.00    +0.055 C 
ATOM     11  N   UNL     1      32.384  49.066  69.884  0.00  0.00    -0.187 NA
BRANCH  11  12
ATOM     12  N   UNL     1      31.551  49.402  68.851  0.00  0.00    -0.203 N 
ATOM     13  C   UNL     1      30.500  50.283  69.074  0.00  0.00    +0.263 C 
ATOM     14  O   UNL     1      30.247  50.815  70.156  0.00  0.00    -0.268 OA
ATOM     15  H   UNL     1      31.698  49.022  67.955  0.00  0.00    +0.000 HD
BRANCH  13  16
ATOM     16  C   UNL     1      29.653  50.623  67.896  0.00  0.00    +0.039 A 
ATOM     17  C   UNL     1      28.429  49.989  67.640  0.00  0.00    -0.046 A 
ATOM     18  C   UNL     1      27.685  50.325  66.503  0.00  0.00    -0.019 A 
ATOM     19  C   UNL     1      28.162  51.304  65.634  0.00  0.00    +0.117 A 
ATOM     20  C   UNL     1      29.351  51.972  65.895  0.00  0.00    -0.019 A 
ATOM     21  C   UNL     1      30.096  51.633  67.028  0.00  0.00    -0.046 A 
BRANCH  19  22
ATOM     22  O   UNL     1      27.483  51.641  64.501  0.00  0.00    -0.507 OA
ATOM     23  H   UNL     1      27.874  52.218  63.875  0.00  0.00    +0.000 HD
ENDBRANCH  19  22
ENDBRANCH  13  16
ENDBRANCH  11  12
ENDBRANCH   9  10
BRANCH   7  24
ATOM     24  C   UNL     1      37.468  47.822  72.287  0.00  0.00    +0.048 C 
BRANCH  24  25
ATOM     25  C   UNL     1      38.704  48.635  72.600  0.00  0.00    -0.028 A 
ATOM     26  C   UNL     1      39.300  49.428  71.609  0.00  0.00    -0.056 A 
ATOM     27  C   UNL     1      40.555  50.001  71.821  0.00  0.00    -0.047 A 
ATOM     28  C   UNL     1      41.202  49.820  73.041  0.00  0.00    +0.018 A 
ATOM     29  C   UNL     1      40.568  49.142  74.080  0.00  0.00    -0.047 A 
ATOM     30  C   UNL     1      39.320  48.553  73.860  0.00  0.00    -0.056 A 
ATOM     31 BR   UNL     1      42.981  50.419  73.256  0.00  0.00    -0.050 Br
ENDBRANCH  24  25
ENDBRANCH   7  24
TORSDOF 6
ENDMDL
MODEL 2
REMARK VINA RESULT:    -8.244      8.573     11.242
REMARK INTER + INTRA:         -11.768
REMARK INTER:                 -10.923
REMARK INTRA:                  -0.845
REMARK UNBOUND:                -0.874
REMARK  Name = 24a.sdf
REMARK  6 active torsions:
REMARK  status: ('A' for Active; 'I' for Inactive)
REMARK    1  A    between atoms: N_7  and  C_10
REMARK    2  A    between atoms: C_9  and  C_18
REMARK    3  A    between atoms: C_10  and  C_11
REMARK    4  A    between atoms: N_19  and  N_20
REMARK    5  A    between atoms: C_21  and  C_23
REMARK    6  A    between atoms: C_26  and  O_29
REMARK                            x       y       z     vdW  Elec       q    Type
REMARK                         _______ _______ _______ _____ _____    ______ ____
ROOT
ATOM      1  C   UNL     1      34.492  59.189  79.246  0.00  0.00    -0.061 A 
ATOM      2  C   UNL     1      35.313  60.291  79.425  0.00  0.00    -0.060 A 
ATOM      3  C   UNL     1      36.670  60.254  79.064  0.00  0.00    -0.038 A 
ATOM      4  C   UNL     1      37.199  59.047  78.550  0.00  0.00    +0.050 A 
ATOM      5  C   UNL     1      36.365  57.946  78.305  0.00  0.00    +0.009 A 
ATOM      6  C   UNL     1      34.997  58.026  78.661  0.00  0.00    -0.052 A 
ATOM      7  N   UNL     1      38.489  58.668  78.216  0.00  0.00    -0.342 N 
ATOM      8  C   UNL     1      38.457  57.400  77.675  0.00  0.00    +0.015 A 
ATOM      9  C   UNL     1      37.159  56.930  77.688  0.00  0.00    +0.020 A 
ENDROOT
BRANCH   9  10
ATOM     10  C   UNL     1      36.706  55.651  77.174  0.00  0.00    +0.055 C 
ATOM     11  N   UNL     1      37.082  54.551  77.742  0.00  0.00    -0.187 NA
BRANCH  11  12
ATOM     12  N   UNL     1      36.625  53.393  77.173  0.00  0.00    -0.203 N 
ATOM     13  C   UNL     1      37.369  52.779  76.172  0.00  0.00    +0.263 C 
ATOM     14  O   UNL     1      38.446  53.195  75.743  0.00  0.00    -0.268 OA
ATOM     15  H   UNL     1      35.775  52.998  77.472  0.00  0.00    +0.000 HD
BRANCH  13  16
ATOM     16  C   UNL     1      36.823  51.507  75.620  0.00  0.00    +0.039 A 
ATOM     17  C   UNL     1      35.459  51.188  75.673  0.00  0.00    -0.046 A 
ATOM     18  C   UNL     1      35.000  49.967  75.164  0.00  0.00    -0.019 A 
ATOM     19  C   UNL     1      35.906  49.076  74.594  0.00  0.00    +0.117 A 
ATOM     20  C   UNL     1      37.254  49.396  74.494  0.00  0.00    -0.019 A 
ATOM     21  C   UNL     1      37.712  50.613  75.005  0.00  0.00    -0.046 A 
BRANCH  19  22
ATOM     22  O   UNL     1      35.506  47.866  74.112  0.00  0.00    -0.507 OA
ATOM     23  H   UNL     1      34.625  47.576  74.249  0.00  0.00    +0.000 HD
ENDBRANCH  19  22
ENDBRANCH  13  16
ENDBRANCH  11  12
ENDBRANCH   9  10
BRANCH   7  24
ATOM     24  C   UNL     1      39.741  59.380  78.497  0.00  0.00    +0.048 C 
BRANCH  24  25
ATOM     25  C   UNL     1      40.515  58.768  79.642  0.00  0.00    -0.028 A 
ATOM     26  C   UNL     1      41.904  58.603  79.551  0.00  0.00    -0.056 A 
ATOM     27  C   UNL     1      42.592  57.844  80.499  0.00  0.00    -0.047 A 
ATOM     28  C   UNL     1      41.899  57.281  81.569  0.00  0.00    +0.018 A 
ATOM     29  C   UNL     1      40.542  57.540  81.744  0.00  0.00    -0.047 A 
ATOM     30  C   UNL     1      39.852  58.286  80.783  0.00  0.00    -0.056 A 
ATOM     31 BR   UNL     1      42.788  56.089  82.736  0.00  0.00    -0.050 Br
ENDBRANCH  24  25
ENDBRANCH   7  24
TORSDOF 6
ENDMDL
MODEL 3
REMARK VINA RESULT:    -8.062      2.352      4.276
REMARK INTER + INTRA:         -11.529
REMARK INTER:                 -10.623
REMARK INTRA:                  -0.905
REMARK UNBOUND:                -0.874
REMARK  Name = 24a.sdf
REMARK  6 active torsions:
REMARK  status: ('A' for Active; 'I' for Inactive)
REMARK    1  A    between atoms: N_7  and  C_10
REMARK    2  A    between atoms: C_9  and  C_18
REMARK    3  A    between atoms: C_10  and  C_11
REMARK    4  A    between atoms: N_19  and  N_20
REMARK    5  A    between atoms: C_21  and  C_23
REMARK    6  A    between atoms: C_26  and  O_29
REMARK                            x       y       z     vdW  Elec       q    Type
REMARK                         _______ _______ _______ _____ _____    ______ ____
ROOT
ATOM      1  C   UNL     1      37.631  48.984  70.677  0.00  0.00    -0.061 A 
ATOM      2  C   UNL     1      37.961  48.743  72.001  0.00  0.00    -0.060 A 
ATOM      3  C   UNL     1      37.004  48.861  73.023  0.00  0.00    -0.038 A 
ATOM      4  C   UNL     1      35.696  49.276  72.678  0.00  0.00    +0.050 A 
ATOM      5  C   UNL     1      35.334  49.461  71.336  0.00  0.00    +0.009 A 
ATOM      6  C   UNL     1      36.319  49.312  70.330  0.00  0.00    -0.052 A 
ATOM      7  N   UNL     1      34.588  49.586  73.449  0.00  0.00    -0.342 N 
ATOM      8  C   UNL     1      33.524  49.856  72.616  0.00  0.00    +0.015 A 
ATOM      9  C   UNL     1      33.937  49.764  71.302  0.00  0.00    +0.020 A 
ENDROOT
BRANCH   9  10
ATOM     10  C   UNL     1      33.104  49.944  70.127  0.00  0.00    +0.055 C 
ATOM     11  N   UNL     1      31.907  49.455  70.098  0.00  0.00    -0.187 NA
BRANCH  11  12
ATOM     12  N   UNL     1      31.205  49.652  68.939  0.00  0.00    -0.203 N 
ATOM     13  C   UNL     1      30.040  50.410  68.962  0.00  0.00    +0.263 C 
ATOM     14  O   UNL     1      29.571  50.946  69.967  0.00  0.00    -0.268 OA
ATOM     15  H   UNL     1      31.525  49.260  68.095  0.00  0.00    +0.000 HD
BRANCH  13  16
ATOM     16  C   UNL     1      29.345  50.604  67.658  0.00  0.00    +0.039 A 
ATOM     17  C   UNL     1      29.708  51.612  66.754  0.00  0.00    -0.046 A 
ATOM     18  C   UNL     1      29.005  51.770  65.554  0.00  0.00    -0.019 A 
ATOM     19  C   UNL     1      27.949  50.912  65.259  0.00  0.00    +0.117 A 
ATOM     20  C   UNL     1      27.603  49.881  66.124  0.00  0.00    -0.019 A 
ATOM     21  C   UNL     1      28.303  49.726  67.323  0.00  0.00    -0.046 A 
BRANCH  19  22
ATOM     22  O   UNL     1      27.220  51.049  64.115  0.00  0.00    -0.507 OA
ATOM     23  H   UNL     1      27.091  50.311  63.551  0.00  0.00    +0.000 HD
ENDBRANCH  19  22
ENDBRANCH  13  16
ENDBRANCH  11  12
ENDBRANCH   9  10
BRANCH   7  24
ATOM     24  C   UNL     1      34.522  49.762  74.905  0.00  0.00    +0.048 C 
BRANCH  24  25
ATOM     25  C   UNL     1      34.717  51.200  75.327  0.00  0.00    -0.028 A 
ATOM     26  C   UNL     1      36.003  51.693  75.592  0.00  0.00    -0.056 A 
ATOM     27  C   UNL     1      36.173  52.942  76.192  0.00  0.00    -0.047 A 
ATOM     28  C   UNL     1      35.060  53.724  76.491  0.00  0.00    +0.018 A 
ATOM     29  C   UNL     1      33.785  53.305  76.119  0.00  0.00    -0.047 A 
ATOM     30  C   UNL     1      33.614  52.046  75.535  0.00  0.00    -0.056 A 
ATOM     31 BR   UNL     1      35.274  55.317  77.484  0.00  0.00    -0.050 Br
ENDBRANCH  24  25
ENDBRANCH   7  24
TORSDOF 6
ENDMDL
