MODEL 1
REMARK VINA RESULT:    -8.719      0.000      0.000
REMARK INTER + INTRA:         -12.078
REMARK INTER:                 -11.523
REMARK INTRA:                  -0.555
REMARK UNBOUND:                -0.555
REMARK  Name = 27a.sdf
REMARK  6 active torsions:
REMARK  status: ('A' for Active; 'I' for Inactive)
REMARK    1  A    between atoms: N_7  and  C_10
REMARK    2  A    between atoms: C_9  and  C_18
REMARK    3  A    between atoms: C_10  and  C_11
REMARK    4  A    between atoms: N_19  and  N_20
REMARK    5  A    between atoms: C_21  and  C_23
REMARK    6  A    between atoms: C_26  and  N_29
REMARK                            x       y       z     vdW  Elec       q    Type
REMARK                         _______ _______ _______ _____ _____    ______ ____
ROOT
ATOM      1  C   UNL     1      32.321  52.432  74.474  0.00  0.00    -0.061 A 
ATOM      2  C   UNL     1      33.333  52.159  75.386  0.00  0.00    -0.060 A 
ATOM      3  C   UNL     1      34.180  51.059  75.212  0.00  0.00    -0.038 A 
ATOM      4  C   UNL     1      33.990  50.239  74.088  0.00  0.00    +0.050 A 
ATOM      5  C   UNL     1      33.006  50.522  73.131  0.00  0.00    +0.009 A 
ATOM      6  C   UNL     1      32.154  51.629  73.342  0.00  0.00    -0.052 A 
ATOM      7  N   UNL     1      34.625  49.080  73.681  0.00  0.00    -0.342 N 
ATOM      8  C   UNL     1      34.122  48.678  72.469  0.00  0.00    +0.015 A 
ATOM      9  C   UNL     1      33.123  49.550  72.088  0.00  0.00    +0.020 A 
ENDROOT
BRANCH   9  10
ATOM     10  C   UNL     1      32.350  49.483  70.864  0.00  0.00    +0.055 C 
ATOM     11  N   UNL     1      31.169  50.008  70.817  0.00  0.00    -0.187 NA
BRANCH  11  12
ATOM     12  N   UNL     1      30.507  49.887  69.628  0.00  0.00    -0.203 N 
ATOM     13  C   UNL     1      30.002  51.025  69.010  0.00  0.00    +0.263 C 
ATOM     14  O   UNL     1      30.106  52.173  69.438  0.00  0.00    -0.268 OA
ATOM     15  H   UNL     1      30.389  49.002  69.212  0.00  0.00    +0.000 HD
BRANCH  13  16
ATOM     16  C   UNL     1      29.312  50.798  67.706  0.00  0.00    +0.038 A 
ATOM     17  C   UNL     1      28.423  49.737  67.492  0.00  0.00    -0.048 A 
ATOM     18  C   UNL     1      27.808  49.578  66.243  0.00  0.00    -0.040 A 
ATOM     19  C   UNL     1      28.092  50.448  65.186  0.00  0.00    +0.025 A 
ATOM     20  C   UNL     1      28.909  51.552  65.432  0.00  0.00    -0.040 A 
ATOM     21  C   UNL     1      29.530  51.719  66.674  0.00  0.00    -0.048 A 
BRANCH  19  22
ATOM     22  N   UNL     1      27.382  50.351  63.984  0.00  0.00    -0.358 N 
ATOM     23  H   UNL     1      27.477  49.551  63.420  0.00  0.00    +0.000 HD
ATOM     24  H   UNL     1      26.787  51.084  63.704  0.00  0.00    +0.000 HD
ENDBRANCH  19  22
ENDBRANCH  13  16
ENDBRANCH  11  12
ENDBRANCH   9  10
BRANCH   7  25
ATOM     25  C   UNL     1      35.599  48.309  74.453  0.00  0.00    +0.048 C 
BRANCH  25  26
ATOM     26  C   UNL     1      37.014  48.740  74.159  0.00  0.00    -0.028 A 
ATOM     27  C   UNL     1      37.909  47.867  73.522  0.00  0.00    -0.056 A 
ATOM     28  C   UNL     1      39.249  48.220  73.356  0.00  0.00    -0.047 A 
ATOM     29  C   UNL     1      39.699  49.456  73.811  0.00  0.00    +0.018 A 
ATOM     30  C   UNL     1      38.813  50.360  74.393  0.00  0.00    -0.047 A 
ATOM     31  C   UNL     1      37.473  50.002  74.564  0.00  0.00    -0.056 A 
ATOM     32 BR   UNL     1      41.533  49.894  73.673  0.00  0.00    -0.050 Br
ENDBRANCH  25  26
ENDBRANCH   7  25
TORSDOF 6
ENDMDL
MODEL 2
REMARK VINA RESULT:    -8.456      7.399     12.514
REMARK INTER + INTRA:         -11.730
REMARK INTER:                 -10.774
REMARK INTRA:                  -0.956
REMARK UNBOUND:                -0.555
REMARK  Name = 27a.sdf
REMARK  6 active torsions:
REMARK  status: ('A' for Active; 'I' for Inactive)
REMARK    1  A    between atoms: N_7  and  C_10
REMARK    2  A    between atoms: C_9  and  C_18
REMARK    3  A    between atoms: C_10  and  C_11
REMARK    4  A    between atoms: N_19  and  N_20
REMARK    5  A    between atoms: C_21  and  C_23
REMARK    6  A    between atoms: C_26  and  N_29
REMARK                            x       y       z     vdW  Elec       q    Type
REMARK                         _______ _______ _______ _____ _____    ______ ____
ROOT
ATOM      1  C   UNL     1      33.763  56.907  73.902  0.00  0.00    -0.061 A 
ATOM      2  C   UNL     1      32.891  55.850  73.677  0.00  0.00    -0.060 A 
ATOM      3  C   UNL     1      32.878  54.737  74.525  0.00  0.00    -0.038 A 
ATOM      4  C   UNL     1      33.760  54.716  75.617  0.00  0.00    +0.050 A 
ATOM      5  C   UNL     1      34.615  55.793  75.890  0.00  0.00    +0.009 A 
ATOM      6  C   UNL     1      34.621  56.895  75.005  0.00  0.00    -0.052 A 
ATOM      7  N   UNL     1      34.004  53.756  76.581  0.00  0.00    -0.342 N 
ATOM      8  C   UNL     1      34.922  54.229  77.484  0.00  0.00    +0.015 A 
ATOM      9  C   UNL     1      35.320  55.493  77.098  0.00  0.00    +0.020 A 
ENDROOT
BRANCH   9  10
ATOM     10  C   UNL     1      36.268  56.341  77.792  0.00  0.00    +0.055 C 
ATOM     11  N   UNL     1      37.446  55.891  78.081  0.00  0.00    -0.187 NA
BRANCH  11  12
ATOM     12  N   UNL     1      38.270  56.753  78.746  0.00  0.00    -0.203 N 
ATOM     13  C   UNL     1      39.139  56.258  79.711  0.00  0.00    +0.263 C 
ATOM     14  O   UNL     1      39.250  55.075  80.028  0.00  0.00    -0.268 OA
ATOM     15  H   UNL     1      38.250  57.717  78.544  0.00  0.00    +0.000 HD
BRANCH  13  16
ATOM     16  C   UNL     1      40.015  57.271  80.370  0.00  0.00    +0.038 A 
ATOM     17  C   UNL     1      40.318  58.507  79.787  0.00  0.00    -0.048 A 
ATOM     18  C   UNL     1      41.148  59.415  80.458  0.00  0.00    -0.040 A 
ATOM     19  C   UNL     1      41.713  59.094  81.696  0.00  0.00    +0.025 A 
ATOM     20  C   UNL     1      41.337  57.898  82.309  0.00  0.00    -0.040 A 
ATOM     21  C   UNL     1      40.510  56.984  81.648  0.00  0.00    -0.048 A 
BRANCH  19  22
ATOM     22  N   UNL     1      42.440  60.053  82.409  0.00  0.00    -0.358 N 
ATOM     23  H   UNL     1      42.099  60.390  83.268  0.00  0.00    +0.000 HD
ATOM     24  H   UNL     1      43.294  60.389  82.051  0.00  0.00    +0.000 HD
ENDBRANCH  19  22
ENDBRANCH  13  16
ENDBRANCH  11  12
ENDBRANCH   9  10
BRANCH   7  25
ATOM     25  C   UNL     1      33.475  52.392  76.599  0.00  0.00    +0.048 C 
BRANCH  25  26
ATOM     26  C   UNL     1      34.161  51.512  75.585  0.00  0.00    -0.028 A 
ATOM     27  C   UNL     1      33.505  51.137  74.403  0.00  0.00    -0.056 A 
ATOM     28  C   UNL     1      34.093  50.228  73.522  0.00  0.00    -0.047 A 
ATOM     29  C   UNL     1      35.349  49.700  73.810  0.00  0.00    +0.018 A 
ATOM     30  C   UNL     1      36.041  50.105  74.949  0.00  0.00    -0.047 A 
ATOM     31  C   UNL     1      35.449  51.010  75.833  0.00  0.00    -0.056 A 
ATOM     32 BR   UNL     1      36.102  48.397  72.666  0.00  0.00    -0.050 Br
ENDBRANCH  25  26
ENDBRANCH   7  25
TORSDOF 6
ENDMDL
MODEL 3
REMARK VINA RESULT:    -8.261      6.209     11.844
REMARK INTER + INTRA:         -11.472
REMARK INTER:                 -10.551
REMARK INTRA:                  -0.921
REMARK UNBOUND:                -0.555
REMARK  Name = 27a.sdf
REMARK  6 active torsions:
REMARK  status: ('A' for Active; 'I' for Inactive)
REMARK    1  A    between atoms: N_7  and  C_10
REMARK    2  A    between atoms: C_9  and  C_18
REMARK    3  A    between atoms: C_10  and  C_11
REMARK    4  A    between atoms: N_19  and  N_20
REMARK    5  A    between atoms: C_21  and  C_23
REMARK    6  A    between atoms: C_26  and  N_29
REMARK                            x       y       z     vdW  Elec       q    Type
REMARK                         _______ _______ _______ _____ _____    ______ ____
ROOT
ATOM      1  C   UNL     1      41.941  51.362  71.860  0.00  0.00    -0.061 A 
ATOM      2  C   UNL     1      41.232  50.420  71.126  0.00  0.00    -0.060 A 
ATOM      3  C   UNL     1      40.166  49.717  71.697  0.00  0.00    -0.038 A 
ATOM      4  C   UNL     1      39.820  49.993  73.030  0.00  0.00    +0.050 A 
ATOM      5  C   UNL     1      40.491  50.972  73.775  0.00  0.00    +0.009 A 
ATOM      6  C   UNL     1      41.576  51.652  73.178  0.00  0.00    -0.052 A 
ATOM      7  N   UNL     1      38.864  49.440  73.863  0.00  0.00    -0.342 N 
ATOM      8  C   UNL     1      38.868  50.094  75.070  0.00  0.00    +0.015 A 
ATOM      9  C   UNL     1      39.855  51.058  75.054  0.00  0.00    +0.020 A 
ENDROOT
BRANCH   9  10
ATOM     10  C   UNL     1      40.175  51.973  76.131  0.00  0.00    +0.055 C 
ATOM     11  N   UNL     1      39.406  52.984  76.369  0.00  0.00    -0.187 NA
BRANCH  11  12
ATOM     12  N   UNL     1      39.790  53.802  77.394  0.00  0.00    -0.203 N 
ATOM     13  C   UNL     1      38.854  54.647  77.979  0.00  0.00    +0.263 C 
ATOM     14  O   UNL     1      37.670  54.725  77.661  0.00  0.00    -0.268 OA
ATOM     15  H   UNL     1      40.721  53.792  77.715  0.00  0.00    +0.000 HD
BRANCH  13  16
ATOM     16  C   UNL     1      39.361  55.487  79.104  0.00  0.00    +0.038 A 
ATOM     17  C   UNL     1      38.751  56.689  79.488  0.00  0.00    -0.048 A 
ATOM     18  C   UNL     1      39.277  57.432  80.553  0.00  0.00    -0.040 A 
ATOM     19  C   UNL     1      40.428  57.011  81.226  0.00  0.00    +0.025 A 
ATOM     20  C   UNL     1      40.977  55.771  80.895  0.00  0.00    -0.040 A 
ATOM     21  C   UNL     1      40.462  55.022  79.832  0.00  0.00    -0.048 A 
BRANCH  19  22
ATOM     22  N   UNL     1      40.871  57.697  82.362  0.00  0.00    -0.358 N 
ATOM     23  H   UNL     1      41.767  58.102  82.373  0.00  0.00    +0.000 HD
ATOM     24  H   UNL     1      40.285  57.774  83.149  0.00  0.00    +0.000 HD
ENDBRANCH  19  22
ENDBRANCH  13  16
ENDBRANCH  11  12
ENDBRANCH   9  10
BRANCH   7  25
ATOM     25  C   UNL     1      38.043  48.264  73.578  0.00  0.00    +0.048 C 
BRANCH  25  26
ATOM     26  C   UNL     1      36.684  48.644  73.047  0.00  0.00    -0.028 A 
ATOM     27  C   UNL     1      35.564  48.652  73.891  0.00  0.00    -0.056 A 
ATOM     28  C   UNL     1      34.288  48.889  73.377  0.00  0.00    -0.047 A 
ATOM     29  C   UNL     1      34.127  49.135  72.015  0.00  0.00    +0.018 A 
ATOM     30  C   UNL     1      35.234  49.189  71.172  0.00  0.00    -0.047 A 
ATOM     31  C   UNL     1      36.510  48.946  71.688  0.00  0.00    -0.056 A 
ATOM     32 BR   UNL     1      32.391  49.359  71.303  0.00  0.00    -0.050 Br
ENDBRANCH  25  26
ENDBRANCH   7  25
TORSDOF 6
ENDMDL
