MODEL 1
REMARK VINA RESULT:    -6.093      0.000      0.000
REMARK INTER + INTRA:          -6.970
REMARK INTER:                  -6.805
REMARK INTRA:                  -0.165
REMARK UNBOUND:                -0.165
REMARK  Name = 2.sdf
REMARK  2 active torsions:
REMARK  status: ('A' for Active; 'I' for Inactive)
REMARK    1  A    between atoms: C_9  and  C_10
REMARK    2  A    between atoms: C_11  and  C_12
REMARK                            x       y       z     vdW  Elec       q    Type
REMARK                         _______ _______ _______ _____ _____    ______ ____
ROOT
ATOM      1  C   UNL     1      34.922  50.282  74.806  0.00  0.00    -0.061 A 
ATOM      2  C   UNL     1      34.060  49.696  73.885  0.00  0.00    -0.060 A 
ATOM      3  C   UNL     1      34.521  48.734  72.984  0.00  0.00    -0.038 A 
ATOM      4  C   UNL     1      35.877  48.383  73.040  0.00  0.00    +0.047 A 
ATOM      5  C   UNL     1      36.774  48.946  73.954  0.00  0.00    +0.007 A 
ATOM      6  C   UNL     1      36.275  49.921  74.848  0.00  0.00    -0.052 A 
ATOM      7  N   UNL     1      36.583  47.489  72.271  0.00  0.00    -0.360 N 
ATOM      8  C   UNL     1      37.900  47.474  72.647  0.00  0.00    +0.010 A 
ATOM      9  C   UNL     1      38.052  48.352  73.700  0.00  0.00    +0.000 A 
ATOM     10  H   UNL     1      36.197  46.938  71.551  0.00  0.00    +0.000 HD
ENDROOT
BRANCH   9  11
ATOM     11  C   UNL     1      39.321  48.571  74.329  0.00  0.00    -0.046 C 
ATOM     12  C   UNL     1      40.406  49.079  73.724  0.00  0.00    +0.023 C 
BRANCH  12  13
ATOM     13  C   UNL     1      41.744  49.340  74.290  0.00  0.00    +0.330 C 
ATOM     14  O   UNL     1      41.943  48.978  75.568  0.00  0.00    -0.478 OA
ATOM     15  O   UNL     1      42.620  49.858  73.614  0.00  0.00    -0.246 OA
ENDBRANCH  12  13
ENDBRANCH   9  11
TORSDOF 2
ENDMDL
MODEL 2
REMARK VINA RESULT:    -6.048      6.092      8.026
REMARK INTER + INTRA:          -6.920
REMARK INTER:                  -6.769
REMARK INTRA:                  -0.151
REMARK UNBOUND:                -0.165
REMARK  Name = 2.sdf
REMARK  2 active torsions:
REMARK  status: ('A' for Active; 'I' for Inactive)
REMARK    1  A    between atoms: C_9  and  C_10
REMARK    2  A    between atoms: C_11  and  C_12
REMARK                            x       y       z     vdW  Elec       q    Type
REMARK                         _______ _______ _______ _____ _____    ______ ____
ROOT
ATOM      1  C   UNL     1      34.878  50.451  75.225  0.00  0.00    -0.061 A 
ATOM      2  C   UNL     1      35.583  49.309  74.862  0.00  0.00    -0.060 A 
ATOM      3  C   UNL     1      35.211  48.564  73.741  0.00  0.00    -0.038 A 
ATOM      4  C   UNL     1      34.107  49.006  73.000  0.00  0.00    +0.047 A 
ATOM      5  C   UNL     1      33.376  50.152  73.330  0.00  0.00    +0.007 A 
ATOM      6  C   UNL     1      33.776  50.880  74.474  0.00  0.00    -0.052 A 
ATOM      7  N   UNL     1      33.529  48.461  71.878  0.00  0.00    -0.360 N 
ATOM      8  C   UNL     1      32.446  49.204  71.492  0.00  0.00    +0.010 A 
ATOM      9  C   UNL     1      32.331  50.271  72.357  0.00  0.00    +0.000 A 
ATOM     10  H   UNL     1      33.848  47.650  71.418  0.00  0.00    +0.000 HD
ENDROOT
BRANCH   9  11
ATOM     11  C   UNL     1      31.289  51.247  72.227  0.00  0.00    -0.046 C 
ATOM     12  C   UNL     1      30.080  51.020  71.690  0.00  0.00    +0.023 C 
BRANCH  12  13
ATOM     13  C   UNL     1      28.954  51.957  71.517  0.00  0.00    +0.330 C 
ATOM     14  O   UNL     1      29.161  53.230  71.892  0.00  0.00    -0.478 OA
ATOM     15  O   UNL     1      27.890  51.579  71.051  0.00  0.00    -0.246 OA
ENDBRANCH  12  13
ENDBRANCH   9  11
TORSDOF 2
ENDMDL
MODEL 3
REMARK VINA RESULT:    -5.906     11.270     12.751
REMARK INTER + INTRA:          -6.761
REMARK INTER:                  -6.655
REMARK INTRA:                  -0.106
REMARK UNBOUND:                -0.165
REMARK  Name = 2.sdf
REMARK  2 active torsions:
REMARK  status: ('A' for Active; 'I' for Inactive)
REMARK    1  A    between atoms: C_9  and  C_10
REMARK    2  A    between atoms: C_11  and  C_12
REMARK                            x       y       z     vdW  Elec       q    Type
REMARK                         _______ _______ _______ _____ _____    ______ ____
ROOT
ATOM      1  C   UNL     1      41.407  57.409  82.482  0.00  0.00    -0.061 A 
ATOM      2  C   UNL     1      42.490  58.280  82.440  0.00  0.00    -0.060 A 
ATOM      3  C   UNL     1      42.509  59.356  81.550  0.00  0.00    -0.038 A 
ATOM      4  C   UNL     1      41.404  59.525  80.705  0.00  0.00    +0.047 A 
ATOM      5  C   UNL     1      40.295  58.674  80.721  0.00  0.00    +0.007 A 
ATOM      6  C   UNL     1      40.310  57.591  81.629  0.00  0.00    -0.052 A 
ATOM      7  N   UNL     1      41.176  60.478  79.741  0.00  0.00    -0.360 N 
ATOM      8  C   UNL     1      39.972  60.255  79.128  0.00  0.00    +0.010 A 
ATOM      9  C   UNL     1      39.388  59.155  79.721  0.00  0.00    +0.000 A 
ATOM     10  H   UNL     1      41.791  61.216  79.521  0.00  0.00    +0.000 HD
ENDROOT
BRANCH   9  11
ATOM     11  C   UNL     1      38.111  58.656  79.306  0.00  0.00    -0.046 C 
ATOM     12  C   UNL     1      37.751  57.363  79.300  0.00  0.00    +0.023 C 
BRANCH  12  13
ATOM     13  C   UNL     1      36.466  56.763  78.893  0.00  0.00    +0.330 C 
ATOM     14  O   UNL     1      35.396  57.047  79.653  0.00  0.00    -0.478 OA
ATOM     15  O   UNL     1      36.394  56.045  77.907  0.00  0.00    -0.246 OA
ENDBRANCH  12  13
ENDBRANCH   9  11
TORSDOF 2
ENDMDL
