MODEL 1
REMARK VINA RESULT:    -6.305      0.000      0.000
REMARK INTER + INTRA:          -7.882
REMARK INTER:                  -7.595
REMARK INTRA:                  -0.287
REMARK UNBOUND:                -0.287
REMARK  Name = 3.sdf
REMARK  4 active torsions:
REMARK  status: ('A' for Active; 'I' for Inactive)
REMARK    1  A    between atoms: CG_9  and  CB_10
REMARK    2  A    between atoms: CB_10  and  CA_11
REMARK    3  A    between atoms: CA_11  and  C_12
REMARK    4  A    between atoms: CA_11  and  N_15
REMARK                            x       y       z     vdW  Elec       q    Type
REMARK                         _______ _______ _______ _____ _____    ______ ____
ROOT
ATOM      1  CZ3 TRP A   1      35.627  48.639  74.344  0.00  0.00    -0.061 A 
ATOM      2  CH2 TRP A   1      35.570  49.674  75.275  0.00  0.00    -0.060 A 
ATOM      3  CZ2 TRP A   1      34.627  50.697  75.154  0.00  0.00    -0.038 A 
ATOM      4  CE2 TRP A   1      33.736  50.635  74.076  0.00  0.00    +0.047 A 
ATOM      5  CD2 TRP A   1      33.744  49.599  73.141  0.00  0.00    +0.003 A 
ATOM      6  CE3 TRP A   1      34.721  48.589  73.275  0.00  0.00    -0.052 A 
ATOM      7  NE1 TRP A   1      32.727  51.494  73.717  0.00  0.00    -0.360 N 
ATOM      8  CD1 TRP A   1      32.064  51.016  72.621  0.00  0.00    +0.006 A 
ATOM      9  CG  TRP A   1      32.657  49.830  72.229  0.00  0.00    -0.020 A 
ATOM     10  HE1 TRP A   1      32.513  52.334  74.183  0.00  0.00    +0.000 HD
ENDROOT
BRANCH   9  11
ATOM     11  CB  TRP A   1      32.221  48.921  71.115  0.00  0.00    -0.000 C 
BRANCH  11  12
ATOM     12  CA  TRP A   1      32.686  49.327  69.710  0.00  0.00    +0.107 C 
BRANCH  12  13
ATOM     13  N   TRP A   1      32.456  48.234  68.728  0.00  0.00    -0.318 N 
ATOM     14  H1  TRP A   1      32.251  47.367  69.226  0.00  0.00    +0.000 HD
ATOM     15  H2  TRP A   1      33.293  48.107  68.158  0.00  0.00    +0.000 HD
ATOM     16  H3  TRP A   1      31.669  48.476  68.127  0.00  0.00    +0.000 HD
ENDBRANCH  12  13
BRANCH  12  17
ATOM     17  C   TRP A   1      34.164  49.746  69.675  0.00  0.00    +0.322 C 
ATOM     18  O   TRP A   1      34.357  51.088  69.636  0.00  0.00    -0.480 OA
ATOM     19  OXT TRP A   1      35.096  48.961  69.777  0.00  0.00    -0.249 OA
ENDBRANCH  12  17
ENDBRANCH  11  12
ENDBRANCH   9  11
TORSDOF 4
ENDMDL
MODEL 2
REMARK VINA RESULT:    -6.131      3.034      4.356
REMARK INTER + INTRA:          -7.672
REMARK INTER:                  -7.375
REMARK INTRA:                  -0.297
REMARK UNBOUND:                -0.287
REMARK  Name = 3.sdf
REMARK  4 active torsions:
REMARK  status: ('A' for Active; 'I' for Inactive)
REMARK    1  A    between atoms: CG_9  and  CB_10
REMARK    2  A    between atoms: CB_10  and  CA_11
REMARK    3  A    between atoms: CA_11  and  C_12
REMARK    4  A    between atoms: CA_11  and  N_15
REMARK                            x       y       z     vdW  Elec       q    Type
REMARK                         _______ _______ _______ _____ _____    ______ ____
ROOT
ATOM      1  CZ3 TRP A   1      33.868  52.222  76.063  0.00  0.00    -0.061 A 
ATOM      2  CH2 TRP A   1      32.719  52.658  75.408  0.00  0.00    -0.060 A 
ATOM      3  CZ2 TRP A   1      32.261  52.012  74.257  0.00  0.00    -0.038 A 
ATOM      4  CE2 TRP A   1      32.989  50.907  73.799  0.00  0.00    +0.047 A 
ATOM      5  CD2 TRP A   1      34.127  50.425  74.446  0.00  0.00    +0.003 A 
ATOM      6  CE3 TRP A   1      34.579  51.108  75.595  0.00  0.00    -0.052 A 
ATOM      7  NE1 TRP A   1      32.773  50.100  72.710  0.00  0.00    -0.360 N 
ATOM      8  CD1 TRP A   1      33.700  49.097  72.671  0.00  0.00    +0.006 A 
ATOM      9  CG  TRP A   1      34.563  49.251  73.739  0.00  0.00    -0.020 A 
ATOM     10  HE1 TRP A   1      32.053  50.228  72.050  0.00  0.00    +0.000 HD
ENDROOT
BRANCH   9  11
ATOM     11  CB  TRP A   1      35.693  48.343  74.133  0.00  0.00    -0.000 C 
BRANCH  11  12
ATOM     12  CA  TRP A   1      36.957  48.450  73.269  0.00  0.00    +0.107 C 
BRANCH  12  13
ATOM     13  N   TRP A   1      37.451  47.106  72.867  0.00  0.00    -0.318 N 
ATOM     14  H1  TRP A   1      38.247  46.847  73.450  0.00  0.00    +0.000 HD
ATOM     15  H2  TRP A   1      37.742  47.129  71.888  0.00  0.00    +0.000 HD
ATOM     16  H3  TRP A   1      36.706  46.420  72.984  0.00  0.00    +0.000 HD
ENDBRANCH  12  13
BRANCH  12  17
ATOM     17  C   TRP A   1      38.087  49.224  73.966  0.00  0.00    +0.322 C 
ATOM     18  O   TRP A   1      39.333  48.816  73.619  0.00  0.00    -0.480 OA
ATOM     19  OXT TRP A   1      37.902  50.191  74.692  0.00  0.00    -0.249 OA
ENDBRANCH  12  17
ENDBRANCH  11  12
ENDBRANCH   9  11
TORSDOF 4
ENDMDL
MODEL 3
REMARK VINA RESULT:    -6.059      2.113      2.994
REMARK INTER + INTRA:          -7.586
REMARK INTER:                  -7.331
REMARK INTRA:                  -0.255
REMARK UNBOUND:                -0.287
REMARK  Name = 3.sdf
REMARK  4 active torsions:
REMARK  status: ('A' for Active; 'I' for Inactive)
REMARK    1  A    between atoms: CG_9  and  CB_10
REMARK    2  A    between atoms: CB_10  and  CA_11
REMARK    3  A    between atoms: CA_11  and  C_12
REMARK    4  A    between atoms: CA_11  and  N_15
REMARK                            x       y       z     vdW  Elec       q    Type
REMARK                         _______ _______ _______ _____ _____    ______ ____
ROOT
ATOM      1  CZ3 TRP A   1      34.260  50.128  74.474  0.00  0.00    -0.061 A 
ATOM      2  CH2 TRP A   1      35.322  49.403  75.008  0.00  0.00    -0.060 A 
ATOM      3  CZ2 TRP A   1      36.118  48.593  74.194  0.00  0.00    -0.038 A 
ATOM      4  CE2 TRP A   1      35.817  48.549  72.828  0.00  0.00    +0.047 A 
ATOM      5  CD2 TRP A   1      34.779  49.284  72.254  0.00  0.00    +0.003 A 
ATOM      6  CE3 TRP A   1      33.978  50.079  73.101  0.00  0.00    -0.052 A 
ATOM      7  NE1 TRP A   1      36.420  47.846  71.815  0.00  0.00    -0.360 N 
ATOM      8  CD1 TRP A   1      35.837  48.145  70.616  0.00  0.00    +0.006 A 
ATOM      9  CG  TRP A   1      34.812  49.046  70.836  0.00  0.00    -0.020 A 
ATOM     10  HE1 TRP A   1      37.167  47.214  71.937  0.00  0.00    +0.000 HD
ENDROOT
BRANCH   9  11
ATOM     11  CB  TRP A   1      33.943  49.704  69.802  0.00  0.00    -0.000 C 
BRANCH  11  12
ATOM     12  CA  TRP A   1      32.520  49.140  69.681  0.00  0.00    +0.107 C 
BRANCH  12  13
ATOM     13  N   TRP A   1      32.430  48.133  68.589  0.00  0.00    -0.318 N 
ATOM     14  H1  TRP A   1      33.357  47.979  68.191  0.00  0.00    +0.000 HD
ATOM     15  H2  TRP A   1      31.801  48.476  67.862  0.00  0.00    +0.000 HD
ATOM     16  H3  TRP A   1      32.070  47.256  68.964  0.00  0.00    +0.000 HD
ENDBRANCH  12  13
BRANCH  12  17
ATOM     17  C   TRP A   1      31.467  50.235  69.456  0.00  0.00    +0.322 C 
ATOM     18  O   TRP A   1      31.886  51.482  69.791  0.00  0.00    -0.480 OA
ATOM     19  OXT TRP A   1      30.382  50.039  68.927  0.00  0.00    -0.249 OA
ENDBRANCH  12  17
ENDBRANCH  11  12
ENDBRANCH   9  11
TORSDOF 4
ENDMDL
