MODEL 1
REMARK VINA RESULT:    -6.570      0.000      0.000
REMARK INTER + INTRA:          -8.530
REMARK INTER:                  -7.914
REMARK INTRA:                  -0.616
REMARK UNBOUND:                -0.616
REMARK  Name = 4b.sdf
REMARK  4 active torsions:
REMARK  status: ('A' for Active; 'I' for Inactive)
REMARK    1  A    between atoms: N_7  and  C_11
REMARK    2  A    between atoms: C_9  and  C_10
REMARK    3  A    between atoms: C_10  and  O_18
REMARK    4  A    between atoms: C_11  and  C_12
REMARK                            x       y       z     vdW  Elec       q    Type
REMARK                         _______ _______ _______ _____ _____    ______ ____
ROOT
ATOM      1  C   UNL     1      33.650  52.028  75.454  0.00  0.00    -0.061 A 
ATOM      2  C   UNL     1      32.607  52.210  74.552  0.00  0.00    -0.060 A 
ATOM      3  C   UNL     1      32.412  51.329  73.480  0.00  0.00    -0.038 A 
ATOM      4  C   UNL     1      33.313  50.263  73.314  0.00  0.00    +0.050 A 
ATOM      5  C   UNL     1      34.324  50.027  74.255  0.00  0.00    +0.005 A 
ATOM      6  C   UNL     1      34.498  50.930  75.327  0.00  0.00    -0.052 A 
ATOM      7  N   UNL     1      33.458  49.302  72.326  0.00  0.00    -0.342 N 
ATOM      8  C   UNL     1      34.461  48.431  72.682  0.00  0.00    +0.011 A 
ATOM      9  C   UNL     1      35.005  48.828  73.878  0.00  0.00    +0.003 A 
ENDROOT
BRANCH   9  10
ATOM     10  C   UNL     1      36.123  48.183  74.627  0.00  0.00    +0.071 C 
BRANCH  10  11
ATOM     11  O   UNL     1      37.029  47.512  73.758  0.00  0.00    -0.390 OA
ATOM     12  H   UNL     1      37.188  46.614  74.090  0.00  0.00    +0.000 HD
ENDBRANCH  10  11
ENDBRANCH   9  10
BRANCH   7  13
ATOM     13  C   UNL     1      32.801  49.272  71.014  0.00  0.00    +0.048 C 
BRANCH  13  14
ATOM     14  C   UNL     1      33.520  50.126  69.999  0.00  0.00    -0.025 A 
ATOM     15  C   UNL     1      34.577  49.599  69.254  0.00  0.00    -0.039 A 
ATOM     16  C   UNL     1      35.298  50.446  68.425  0.00  0.00    +0.028 A 
ATOM     17  N   UNL     1      35.014  51.753  68.257  0.00  0.00    -0.263 NA
ATOM     18  C   UNL     1      33.957  52.236  68.944  0.00  0.00    +0.028 A 
ATOM     19  C   UNL     1      33.186  51.473  69.809  0.00  0.00    -0.039 A 
ENDBRANCH  13  14
ENDBRANCH   7  13
TORSDOF 4
ENDMDL
MODEL 2
REMARK VINA RESULT:    -6.412      2.364      3.184
REMARK INTER + INTRA:          -8.341
REMARK INTER:                  -7.731
REMARK INTRA:                  -0.610
REMARK UNBOUND:                -0.616
REMARK  Name = 4b.sdf
REMARK  4 active torsions:
REMARK  status: ('A' for Active; 'I' for Inactive)
REMARK    1  A    between atoms: N_7  and  C_11
REMARK    2  A    between atoms: C_9  and  C_10
REMARK    3  A    between atoms: C_10  and  O_18
REMARK    4  A    between atoms: C_11  and  C_12
REMARK                            x       y       z     vdW  Elec       q    Type
REMARK                         _______ _______ _______ _____ _____    ______ ____
ROOT
ATOM      1  C   UNL     1      36.597  51.425  76.036  0.00  0.00    -0.061 A 
ATOM      2  C   UNL     1      35.370  50.905  75.635  0.00  0.00    -0.060 A 
ATOM      3  C   UNL     1      35.284  49.956  74.607  0.00  0.00    -0.038 A 
ATOM      4  C   UNL     1      36.468  49.554  73.964  0.00  0.00    +0.050 A 
ATOM      5  C   UNL     1      37.715  50.015  74.404  0.00  0.00    +0.005 A 
ATOM      6  C   UNL     1      37.774  50.970  75.444  0.00  0.00    -0.052 A 
ATOM      7  N   UNL     1      36.710  48.735  72.872  0.00  0.00    -0.342 N 
ATOM      8  C   UNL     1      38.068  48.605  72.694  0.00  0.00    +0.011 A 
ATOM      9  C   UNL     1      38.725  49.359  73.634  0.00  0.00    +0.003 A 
ENDROOT
BRANCH   9  10
ATOM     10  C   UNL     1      40.198  49.521  73.802  0.00  0.00    +0.071 C 
BRANCH  10  11
ATOM     11  O   UNL     1      40.878  48.270  73.777  0.00  0.00    -0.390 OA
ATOM     12  H   UNL     1      41.832  48.420  73.866  0.00  0.00    +0.000 HD
ENDBRANCH  10  11
ENDBRANCH   9  10
BRANCH   7  13
ATOM     13  C   UNL     1      35.725  48.210  71.920  0.00  0.00    +0.048 C 
BRANCH  13  14
ATOM     14  C   UNL     1      35.375  49.216  70.851  0.00  0.00    -0.025 A 
ATOM     15  C   UNL     1      34.316  50.107  71.038  0.00  0.00    -0.039 A 
ATOM     16  C   UNL     1      33.940  50.929  69.986  0.00  0.00    +0.028 A 
ATOM     17  N   UNL     1      34.567  50.955  68.792  0.00  0.00    -0.263 NA
ATOM     18  C   UNL     1      35.621  50.125  68.644  0.00  0.00    +0.028 A 
ATOM     19  C   UNL     1      36.062  49.255  69.631  0.00  0.00    -0.039 A 
ENDBRANCH  13  14
ENDBRANCH   7  13
TORSDOF 4
ENDMDL
MODEL 3
REMARK VINA RESULT:    -6.391      3.337      5.052
REMARK INTER + INTRA:          -8.315
REMARK INTER:                  -7.755
REMARK INTRA:                  -0.560
REMARK UNBOUND:                -0.616
REMARK  Name = 4b.sdf
REMARK  4 active torsions:
REMARK  status: ('A' for Active; 'I' for Inactive)
REMARK    1  A    between atoms: N_7  and  C_11
REMARK    2  A    between atoms: C_9  and  C_10
REMARK    3  A    between atoms: C_10  and  O_18
REMARK    4  A    between atoms: C_11  and  C_12
REMARK                            x       y       z     vdW  Elec       q    Type
REMARK                         _______ _______ _______ _____ _____    ______ ____
ROOT
ATOM      1  C   UNL     1      32.954  50.717  73.378  0.00  0.00    -0.061 A 
ATOM      2  C   UNL     1      33.997  50.419  74.249  0.00  0.00    -0.060 A 
ATOM      3  C   UNL     1      35.114  49.690  73.823  0.00  0.00    -0.038 A 
ATOM      4  C   UNL     1      35.153  49.238  72.493  0.00  0.00    +0.050 A 
ATOM      5  C   UNL     1      34.145  49.591  71.586  0.00  0.00    +0.005 A 
ATOM      6  C   UNL     1      33.029  50.328  72.042  0.00  0.00    -0.052 A 
ATOM      7  N   UNL     1      36.040  48.426  71.804  0.00  0.00    -0.342 N 
ATOM      8  C   UNL     1      35.659  48.353  70.484  0.00  0.00    +0.011 A 
ATOM      9  C   UNL     1      34.507  49.078  70.302  0.00  0.00    +0.003 A 
ENDROOT
BRANCH   9  10
ATOM     10  C   UNL     1      33.740  49.262  69.037  0.00  0.00    +0.071 C 
BRANCH  10  11
ATOM     11  O   UNL     1      32.816  48.202  68.815  0.00  0.00    -0.390 OA
ATOM     12  H   UNL     1      32.591  48.163  67.872  0.00  0.00    +0.000 HD
ENDBRANCH  10  11
ENDBRANCH   9  10
BRANCH   7  13
ATOM     13  C   UNL     1      37.121  47.612  72.369  0.00  0.00    +0.048 C 
BRANCH  13  14
ATOM     14  C   UNL     1      38.373  48.418  72.614  0.00  0.00    -0.025 A 
ATOM     15  C   UNL     1      39.047  48.326  73.833  0.00  0.00    -0.039 A 
ATOM     16  C   UNL     1      40.117  49.175  74.072  0.00  0.00    +0.028 A 
ATOM     17  N   UNL     1      40.582  50.068  73.174  0.00  0.00    -0.263 NA
ATOM     18  C   UNL     1      39.953  50.110  71.981  0.00  0.00    +0.028 A 
ATOM     19  C   UNL     1      38.864  49.313  71.655  0.00  0.00    -0.039 A 
ENDBRANCH  13  14
ENDBRANCH   7  13
TORSDOF 4
ENDMDL
