MODEL 1
REMARK VINA RESULT:    -6.732      0.000      0.000
REMARK INTER + INTRA:          -7.992
REMARK INTER:                  -7.716
REMARK INTRA:                  -0.276
REMARK UNBOUND:                -0.276
REMARK  Name = 4d.sdf
REMARK  3 active torsions:
REMARK  status: ('A' for Active; 'I' for Inactive)
REMARK    1  A    between atoms: C_9  and  C_10
REMARK    2  A    between atoms: C_10  and  O_18
REMARK    3  A    between atoms: C_11  and  C_12
REMARK                            x       y       z     vdW  Elec       q    Type
REMARK                         _______ _______ _______ _____ _____    ______ ____
ROOT
ATOM      1  C   UNL     1      35.587  48.592  73.383  0.00  0.00    -0.061 A 
ATOM      2  C   UNL     1      34.886  49.348  74.313  0.00  0.00    -0.060 A 
ATOM      3  C   UNL     1      33.768  50.096  73.935  0.00  0.00    -0.037 A 
ATOM      4  C   UNL     1      33.367  50.075  72.585  0.00  0.00    +0.057 A 
ATOM      5  C   UNL     1      34.059  49.311  71.636  0.00  0.00    +0.006 A 
ATOM      6  C   UNL     1      35.184  48.564  72.046  0.00  0.00    -0.052 A 
ATOM      7  N   UNL     1      32.281  50.670  71.944  0.00  0.00    -0.283 N 
ATOM      8  C   UNL     1      32.348  50.330  70.603  0.00  0.00    +0.019 A 
ATOM      9  C   UNL     1      33.407  49.481  70.379  0.00  0.00    +0.004 A 
ATOM     10  C   UNL     1      31.267  51.471  72.532  0.00  0.00    +0.263 C 
ATOM     11  O   UNL     1      31.517  52.056  73.581  0.00  0.00    -0.267 OA
ENDROOT
BRANCH  10  12
ATOM     12  C   UNL     1      29.918  51.628  71.925  0.00  0.00    +0.040 A 
ATOM     13  C   UNL     1      28.880  50.760  72.293  0.00  0.00    -0.049 A 
ATOM     14  C   UNL     1      27.633  50.864  71.679  0.00  0.00    -0.061 A 
ATOM     15  C   UNL     1      27.411  51.852  70.723  0.00  0.00    -0.062 A 
ATOM     16  C   UNL     1      28.426  52.756  70.399  0.00  0.00    -0.061 A 
ATOM     17  C   UNL     1      29.680  52.653  71.004  0.00  0.00    -0.049 A 
ENDBRANCH  10  12
BRANCH   9  18
ATOM     18  C   UNL     1      33.783  48.870  69.074  0.00  0.00    +0.071 C 
BRANCH  18  19
ATOM     19  O   UNL     1      32.698  48.140  68.515  0.00  0.00    -0.390 OA
ATOM     20  H   UNL     1      32.625  47.280  68.957  0.00  0.00    +0.000 HD
ENDBRANCH  18  19
ENDBRANCH   9  18
TORSDOF 3
ENDMDL
MODEL 2
REMARK VINA RESULT:    -6.626     11.766     14.635
REMARK INTER + INTRA:          -7.871
REMARK INTER:                  -7.582
REMARK INTRA:                  -0.289
REMARK UNBOUND:                -0.276
REMARK  Name = 4d.sdf
REMARK  3 active torsions:
REMARK  status: ('A' for Active; 'I' for Inactive)
REMARK    1  A    between atoms: C_9  and  C_10
REMARK    2  A    between atoms: C_10  and  O_18
REMARK    3  A    between atoms: C_11  and  C_12
REMARK                            x       y       z     vdW  Elec       q    Type
REMARK                         _______ _______ _______ _____ _____    ______ ____
ROOT
ATOM      1  C   UNL     1      35.053  58.272  78.492  0.00  0.00    -0.061 A 
ATOM      2  C   UNL     1      35.354  57.136  79.232  0.00  0.00    -0.060 A 
ATOM      3  C   UNL     1      36.662  56.872  79.644  0.00  0.00    -0.037 A 
ATOM      4  C   UNL     1      37.678  57.779  79.287  0.00  0.00    +0.057 A 
ATOM      5  C   UNL     1      37.391  58.934  78.547  0.00  0.00    +0.006 A 
ATOM      6  C   UNL     1      36.060  59.176  78.145  0.00  0.00    -0.052 A 
ATOM      7  N   UNL     1      39.038  57.799  79.596  0.00  0.00    -0.283 N 
ATOM      8  C   UNL     1      39.590  58.917  78.994  0.00  0.00    +0.019 A 
ATOM      9  C   UNL     1      38.610  59.650  78.362  0.00  0.00    +0.004 A 
ATOM     10  C   UNL     1      39.753  56.867  80.393  0.00  0.00    +0.263 C 
ATOM     11  O   UNL     1      39.305  55.732  80.512  0.00  0.00    -0.267 OA
ENDROOT
BRANCH  10  12
ATOM     12  C   UNL     1      41.022  57.214  81.086  0.00  0.00    +0.040 A 
ATOM     13  C   UNL     1      41.008  58.109  82.166  0.00  0.00    -0.049 A 
ATOM     14  C   UNL     1      42.204  58.486  82.776  0.00  0.00    -0.061 A 
ATOM     15  C   UNL     1      43.408  57.946  82.332  0.00  0.00    -0.062 A 
ATOM     16  C   UNL     1      43.418  57.009  81.296  0.00  0.00    -0.061 A 
ATOM     17  C   UNL     1      42.226  56.633  80.676  0.00  0.00    -0.049 A 
ENDBRANCH  10  12
BRANCH   9  18
ATOM     18  C   UNL     1      38.805  60.935  77.634  0.00  0.00    +0.071 C 
BRANCH  18  19
ATOM     19  O   UNL     1      40.068  60.971  76.982  0.00  0.00    -0.390 OA
ATOM     20  H   UNL     1      40.131  60.230  76.359  0.00  0.00    +0.000 HD
ENDBRANCH  18  19
ENDBRANCH   9  18
TORSDOF 3
ENDMDL
MODEL 3
REMARK VINA RESULT:    -6.595      1.733      3.784
REMARK INTER + INTRA:          -7.835
REMARK INTER:                  -7.528
REMARK INTRA:                  -0.307
REMARK UNBOUND:                -0.276
REMARK  Name = 4d.sdf
REMARK  3 active torsions:
REMARK  status: ('A' for Active; 'I' for Inactive)
REMARK    1  A    between atoms: C_9  and  C_10
REMARK    2  A    between atoms: C_10  and  O_18
REMARK    3  A    between atoms: C_11  and  C_12
REMARK                            x       y       z     vdW  Elec       q    Type
REMARK                         _______ _______ _______ _____ _____    ______ ____
ROOT
ATOM      1  C   UNL     1      35.621  49.295  74.877  0.00  0.00    -0.061 A 
ATOM      2  C   UNL     1      35.290  48.519  73.773  0.00  0.00    -0.060 A 
ATOM      3  C   UNL     1      34.199  48.848  72.965  0.00  0.00    -0.037 A 
ATOM      4  C   UNL     1      33.433  49.983  73.295  0.00  0.00    +0.057 A 
ATOM      5  C   UNL     1      33.757  50.780  74.400  0.00  0.00    +0.006 A 
ATOM      6  C   UNL     1      34.865  50.425  75.199  0.00  0.00    -0.052 A 
ATOM      7  N   UNL     1      32.342  50.569  72.653  0.00  0.00    -0.283 N 
ATOM      8  C   UNL     1      31.961  51.674  73.396  0.00  0.00    +0.019 A 
ATOM      9  C   UNL     1      32.817  51.850  74.460  0.00  0.00    +0.004 A 
ATOM     10  C   UNL     1      31.722  50.145  71.448  0.00  0.00    +0.263 C 
ATOM     11  O   UNL     1      31.834  48.970  71.114  0.00  0.00    -0.267 OA
ENDROOT
BRANCH  10  12
ATOM     12  C   UNL     1      30.945  51.068  70.579  0.00  0.00    +0.040 A 
ATOM     13  C   UNL     1      31.604  51.840  69.612  0.00  0.00    -0.049 A 
ATOM     14  C   UNL     1      30.887  52.754  68.841  0.00  0.00    -0.061 A 
ATOM     15  C   UNL     1      29.510  52.873  69.010  0.00  0.00    -0.062 A 
ATOM     16  C   UNL     1      28.843  52.062  69.931  0.00  0.00    -0.061 A 
ATOM     17  C   UNL     1      29.556  51.152  70.713  0.00  0.00    -0.049 A 
ENDBRANCH  10  12
BRANCH   9  18
ATOM     18  C   UNL     1      32.756  52.948  75.464  0.00  0.00    +0.071 C 
BRANCH  18  19
ATOM     19  O   UNL     1      31.583  53.736  75.296  0.00  0.00    -0.390 OA
ATOM     20  H   UNL     1      30.913  53.458  75.939  0.00  0.00    +0.000 HD
ENDBRANCH  18  19
ENDBRANCH   9  18
TORSDOF 3
ENDMDL
