MODEL 1
REMARK VINA RESULT:    -7.354      0.000      0.000
REMARK INTER + INTRA:         -10.335
REMARK INTER:                  -9.504
REMARK INTRA:                  -0.831
REMARK UNBOUND:                -0.831
REMARK  Name = 5c.sdf
REMARK  6 active torsions:
REMARK  status: ('A' for Active; 'I' for Inactive)
REMARK    1  A    between atoms: N_7  and  C_12
REMARK    2  A    between atoms: C_9  and  C_10
REMARK    3  A    between atoms: C_11  and  C_20
REMARK    4  A    between atoms: C_12  and  C_13
REMARK    5  A    between atoms: C_20  and  O_21
REMARK    6  A    between atoms: O_21  and  C_23
REMARK                            x       y       z     vdW  Elec       q    Type
REMARK                         _______ _______ _______ _____ _____    ______ ____
ROOT
ATOM      1  C   UNL     1      33.340  52.708  75.816  0.00  0.00    -0.061 A 
ATOM      2  C   UNL     1      34.464  52.008  76.235  0.00  0.00    -0.060 A 
ATOM      3  C   UNL     1      34.888  50.859  75.559  0.00  0.00    -0.038 A 
ATOM      4  C   UNL     1      34.153  50.432  74.439  0.00  0.00    +0.050 A 
ATOM      5  C   UNL     1      33.039  51.144  73.976  0.00  0.00    +0.007 A 
ATOM      6  C   UNL     1      32.628  52.292  74.688  0.00  0.00    -0.052 A 
ATOM      7  N   UNL     1      34.302  49.334  73.610  0.00  0.00    -0.342 N 
ATOM      8  C   UNL     1      33.354  49.371  72.611  0.00  0.00    +0.013 A 
ATOM      9  C   UNL     1      32.563  50.483  72.801  0.00  0.00    +0.000 A 
ENDROOT
BRANCH   9  10
ATOM     10  C   UNL     1      31.466  50.903  71.976  0.00  0.00    -0.046 C 
ATOM     11  C   UNL     1      30.171  50.897  72.335  0.00  0.00    +0.023 C 
BRANCH  11  12
ATOM     12  C   UNL     1      29.043  51.316  71.477  0.00  0.00    +0.332 C 
ATOM     13  O   UNL     1      28.075  51.903  71.940  0.00  0.00    -0.246 OA
BRANCH  12  14
ATOM     14  O   UNL     1      29.219  50.982  70.176  0.00  0.00    -0.465 OA
ATOM     15  C   UNL     1      27.995  50.877  69.443  0.00  0.00    +0.082 C 
ENDBRANCH  12  14
ENDBRANCH  11  12
ENDBRANCH   9  10
BRANCH   7  16
ATOM     16  C   UNL     1      35.264  48.246  73.784  0.00  0.00    +0.048 C 
BRANCH  16  17
ATOM     17  C   UNL     1      36.599  48.589  73.169  0.00  0.00    -0.028 A 
ATOM     18  C   UNL     1      37.658  49.041  73.971  0.00  0.00    -0.055 A 
ATOM     19  C   UNL     1      38.838  49.508  73.389  0.00  0.00    -0.043 A 
ATOM     20  C   UNL     1      38.974  49.509  72.004  0.00  0.00    +0.041 A 
ATOM     21  C   UNL     1      37.959  49.000  71.197  0.00  0.00    -0.043 A 
ATOM     22  C   UNL     1      36.776  48.538  71.777  0.00  0.00    -0.055 A 
ATOM     23 CL   UNL     1      40.389  50.169  71.284  0.00  0.00    -0.084 Cl
ENDBRANCH  16  17
ENDBRANCH   7  16
TORSDOF 5
ENDMDL
MODEL 2
REMARK VINA RESULT:    -7.275      5.431      8.068
REMARK INTER + INTRA:         -10.232
REMARK INTER:                  -9.367
REMARK INTRA:                  -0.865
REMARK UNBOUND:                -0.831
REMARK  Name = 5c.sdf
REMARK  6 active torsions:
REMARK  status: ('A' for Active; 'I' for Inactive)
REMARK    1  A    between atoms: N_7  and  C_12
REMARK    2  A    between atoms: C_9  and  C_10
REMARK    3  A    between atoms: C_11  and  C_20
REMARK    4  A    between atoms: C_12  and  C_13
REMARK    5  A    between atoms: C_20  and  O_21
REMARK    6  A    between atoms: O_21  and  C_23
REMARK                            x       y       z     vdW  Elec       q    Type
REMARK                         _______ _______ _______ _____ _____    ______ ____
ROOT
ATOM      1  C   UNL     1      36.503  51.474  76.036  0.00  0.00    -0.061 A 
ATOM      2  C   UNL     1      35.374  50.816  75.564  0.00  0.00    -0.060 A 
ATOM      3  C   UNL     1      35.475  49.840  74.568  0.00  0.00    -0.038 A 
ATOM      4  C   UNL     1      36.749  49.535  74.056  0.00  0.00    +0.050 A 
ATOM      5  C   UNL     1      37.905  50.157  74.545  0.00  0.00    +0.007 A 
ATOM      6  C   UNL     1      37.768  51.148  75.541  0.00  0.00    -0.052 A 
ATOM      7  N   UNL     1      37.151  48.662  73.061  0.00  0.00    -0.342 N 
ATOM      8  C   UNL     1      38.525  48.679  72.952  0.00  0.00    +0.013 A 
ATOM      9  C   UNL     1      39.024  49.585  73.862  0.00  0.00    +0.000 A 
ENDROOT
BRANCH   9  10
ATOM     10  C   UNL     1      40.406  49.898  74.087  0.00  0.00    -0.046 C 
ATOM     11  C   UNL     1      41.300  49.100  74.693  0.00  0.00    +0.023 C 
BRANCH  11  12
ATOM     12  C   UNL     1      42.719  49.433  74.936  0.00  0.00    +0.332 C 
ATOM     13  O   UNL     1      43.518  49.533  74.014  0.00  0.00    -0.246 OA
BRANCH  12  14
ATOM     14  O   UNL     1      43.002  49.609  76.248  0.00  0.00    -0.465 OA
ATOM     15  C   UNL     1      42.485  48.573  77.089  0.00  0.00    +0.082 C 
ENDBRANCH  12  14
ENDBRANCH  11  12
ENDBRANCH   9  10
BRANCH   7  16
ATOM     16  C   UNL     1      36.271  47.883  72.189  0.00  0.00    +0.048 C 
BRANCH  16  17
ATOM     17  C   UNL     1      35.659  48.746  71.114  0.00  0.00    -0.028 A 
ATOM     18  C   UNL     1      34.303  49.101  71.171  0.00  0.00    -0.055 A 
ATOM     19  C   UNL     1      33.699  49.765  70.102  0.00  0.00    -0.043 A 
ATOM     20  C   UNL     1      34.450  50.094  68.977  0.00  0.00    +0.041 A 
ATOM     21  C   UNL     1      35.813  49.810  68.934  0.00  0.00    -0.043 A 
ATOM     22  C   UNL     1      36.418  49.142  70.000  0.00  0.00    -0.055 A 
ATOM     23 CL   UNL     1      33.685  50.829  67.623  0.00  0.00    -0.084 Cl
ENDBRANCH  16  17
ENDBRANCH   7  16
TORSDOF 5
ENDMDL
MODEL 3
REMARK VINA RESULT:    -7.055      3.388      5.393
REMARK INTER + INTRA:          -9.949
REMARK INTER:                  -9.271
REMARK INTRA:                  -0.678
REMARK UNBOUND:                -0.831
REMARK  Name = 5c.sdf
REMARK  6 active torsions:
REMARK  status: ('A' for Active; 'I' for Inactive)
REMARK    1  A    between atoms: N_7  and  C_12
REMARK    2  A    between atoms: C_9  and  C_10
REMARK    3  A    between atoms: C_11  and  C_20
REMARK    4  A    between atoms: C_12  and  C_13
REMARK    5  A    between atoms: C_20  and  O_21
REMARK    6  A    between atoms: O_21  and  C_23
REMARK                            x       y       z     vdW  Elec       q    Type
REMARK                         _______ _______ _______ _____ _____    ______ ____
ROOT
ATOM      1  C   UNL     1      35.195  50.800  67.545  0.00  0.00    -0.061 A 
ATOM      2  C   UNL     1      35.848  50.111  68.559  0.00  0.00    -0.060 A 
ATOM      3  C   UNL     1      35.136  49.575  69.637  0.00  0.00    -0.038 A 
ATOM      4  C   UNL     1      33.740  49.745  69.669  0.00  0.00    +0.050 A 
ATOM      5  C   UNL     1      33.056  50.402  68.637  0.00  0.00    +0.007 A 
ATOM      6  C   UNL     1      33.805  50.944  67.570  0.00  0.00    -0.052 A 
ATOM      7  N   UNL     1      32.793  49.369  70.604  0.00  0.00    -0.342 N 
ATOM      8  C   UNL     1      31.535  49.720  70.163  0.00  0.00    +0.013 A 
ATOM      9  C   UNL     1      31.661  50.351  68.945  0.00  0.00    +0.000 A 
ENDROOT
BRANCH   9  10
ATOM     10  C   UNL     1      30.594  50.863  68.133  0.00  0.00    -0.046 C 
ATOM     11  C   UNL     1      29.330  50.409  68.126  0.00  0.00    +0.023 C 
BRANCH  11  12
ATOM     12  C   UNL     1      28.238  50.930  67.277  0.00  0.00    +0.332 C 
ATOM     13  O   UNL     1      27.065  50.818  67.608  0.00  0.00    -0.246 OA
BRANCH  12  14
ATOM     14  O   UNL     1      28.687  51.520  66.144  0.00  0.00    -0.465 OA
ATOM     15  C   UNL     1      28.106  50.986  64.951  0.00  0.00    +0.082 C 
ENDBRANCH  12  14
ENDBRANCH  11  12
ENDBRANCH   9  10
BRANCH   7  16
ATOM     16  C   UNL     1      33.061  48.757  71.906  0.00  0.00    +0.048 C 
BRANCH  16  17
ATOM     17  C   UNL     1      33.356  49.804  72.953  0.00  0.00    -0.028 A 
ATOM     18  C   UNL     1      34.421  49.632  73.851  0.00  0.00    -0.055 A 
ATOM     19  C   UNL     1      34.599  50.517  74.916  0.00  0.00    -0.043 A 
ATOM     20  C   UNL     1      33.725  51.589  75.079  0.00  0.00    +0.041 A 
ATOM     21  C   UNL     1      32.705  51.812  74.157  0.00  0.00    -0.043 A 
ATOM     22  C   UNL     1      32.523  50.925  73.095  0.00  0.00    -0.055 A 
ATOM     23 CL   UNL     1      33.888  52.624  76.443  0.00  0.00    -0.084 Cl
ENDBRANCH  16  17
ENDBRANCH   7  16
TORSDOF 5
ENDMDL
