MODEL 1
REMARK VINA RESULT:    -5.841      0.000      0.000
REMARK INTER + INTRA:          -7.061
REMARK INTER:                  -6.866
REMARK INTRA:                  -0.195
REMARK UNBOUND:                -0.195
REMARK  Name = 7.sdf
REMARK  4 active torsions:
REMARK  status: ('A' for Active; 'I' for Inactive)
REMARK    1  A    between atoms: C_9  and  C_10
REMARK    2  A    between atoms: C_10  and  C_11
REMARK    3  A    between atoms: C_11  and  O_13
REMARK    4  A    between atoms: O_13  and  C_14
REMARK                            x       y       z     vdW  Elec       q    Type
REMARK                         _______ _______ _______ _____ _____    ______ ____
ROOT
ATOM      1  C   UNL     1      32.242  52.408  74.445  0.00  0.00    -0.061 A 
ATOM      2  C   UNL     1      32.805  52.956  75.596  0.00  0.00    -0.060 A 
ATOM      3  C   UNL     1      33.919  52.367  76.199  0.00  0.00    -0.038 A 
ATOM      4  C   UNL     1      34.452  51.219  75.601  0.00  0.00    +0.047 A 
ATOM      5  C   UNL     1      33.924  50.653  74.440  0.00  0.00    +0.003 A 
ATOM      6  C   UNL     1      32.790  51.259  73.859  0.00  0.00    -0.052 A 
ATOM      7  N   UNL     1      35.522  50.443  75.979  0.00  0.00    -0.360 N 
ATOM      8  C   UNL     1      35.717  49.433  75.078  0.00  0.00    +0.006 A 
ATOM      9  C   UNL     1      34.745  49.526  74.099  0.00  0.00    -0.012 A 
ATOM     10  H   UNL     1      36.071  50.594  76.783  0.00  0.00    +0.000 HD
ENDROOT
BRANCH   9  11
ATOM     11  C   UNL     1      34.624  48.648  72.892  0.00  0.00    +0.072 C 
BRANCH  11  12
ATOM     12  C   UNL     1      35.902  48.507  72.092  0.00  0.00    +0.311 C 
ATOM     13  O   UNL     1      36.761  47.647  72.221  0.00  0.00    -0.250 OA
BRANCH  12  14
ATOM     14  O   UNL     1      35.962  49.532  71.185  0.00  0.00    -0.468 OA
ATOM     15  C   UNL     1      36.461  49.169  69.895  0.00  0.00    +0.082 C 
ENDBRANCH  12  14
ENDBRANCH  11  12
ENDBRANCH   9  11
TORSDOF 3
ENDMDL
MODEL 2
REMARK VINA RESULT:    -5.833     11.665     13.215
REMARK INTER + INTRA:          -7.052
REMARK INTER:                  -6.901
REMARK INTRA:                  -0.151
REMARK UNBOUND:                -0.195
REMARK  Name = 7.sdf
REMARK  4 active torsions:
REMARK  status: ('A' for Active; 'I' for Inactive)
REMARK    1  A    between atoms: C_9  and  C_10
REMARK    2  A    between atoms: C_10  and  C_11
REMARK    3  A    between atoms: C_11  and  O_13
REMARK    4  A    between atoms: O_13  and  C_14
REMARK                            x       y       z     vdW  Elec       q    Type
REMARK                         _______ _______ _______ _____ _____    ______ ____
ROOT
ATOM      1  C   UNL     1      38.918  57.152  79.780  0.00  0.00    -0.061 A 
ATOM      2  C   UNL     1      39.053  55.783  79.562  0.00  0.00    -0.060 A 
ATOM      3  C   UNL     1      40.094  55.062  80.152  0.00  0.00    -0.038 A 
ATOM      4  C   UNL     1      40.985  55.761  80.975  0.00  0.00    +0.047 A 
ATOM      5  C   UNL     1      40.870  57.129  81.229  0.00  0.00    +0.003 A 
ATOM      6  C   UNL     1      39.817  57.836  80.609  0.00  0.00    -0.052 A 
ATOM      7  N   UNL     1      42.087  55.313  81.665  0.00  0.00    -0.360 N 
ATOM      8  C   UNL     1      42.647  56.336  82.379  0.00  0.00    +0.006 A 
ATOM      9  C   UNL     1      41.920  57.487  82.140  0.00  0.00    -0.012 A 
ATOM     10  H   UNL     1      42.423  54.388  81.648  0.00  0.00    +0.000 HD
ENDROOT
BRANCH   9  11
ATOM     11  C   UNL     1      42.160  58.826  82.764  0.00  0.00    +0.072 C 
BRANCH  11  12
ATOM     12  C   UNL     1      43.554  59.376  82.545  0.00  0.00    +0.311 C 
ATOM     13  O   UNL     1      44.244  59.980  83.354  0.00  0.00    -0.250 OA
BRANCH  12  14
ATOM     14  O   UNL     1      43.930  59.104  81.255  0.00  0.00    -0.468 OA
ATOM     15  C   UNL     1      45.338  58.950  81.057  0.00  0.00    +0.082 C 
ENDBRANCH  12  14
ENDBRANCH  11  12
ENDBRANCH   9  11
TORSDOF 3
ENDMDL
MODEL 3
REMARK VINA RESULT:    -5.727      1.642      2.328
REMARK INTER + INTRA:          -6.927
REMARK INTER:                  -6.646
REMARK INTRA:                  -0.281
REMARK UNBOUND:                -0.195
REMARK  Name = 7.sdf
REMARK  4 active torsions:
REMARK  status: ('A' for Active; 'I' for Inactive)
REMARK    1  A    between atoms: C_9  and  C_10
REMARK    2  A    between atoms: C_10  and  C_11
REMARK    3  A    between atoms: C_11  and  O_13
REMARK    4  A    between atoms: O_13  and  C_14
REMARK                            x       y       z     vdW  Elec       q    Type
REMARK                         _______ _______ _______ _____ _____    ______ ____
ROOT
ATOM      1  C   UNL     1      33.893  52.193  75.969  0.00  0.00    -0.061 A 
ATOM      2  C   UNL     1      32.784  52.641  75.255  0.00  0.00    -0.060 A 
ATOM      3  C   UNL     1      32.346  51.965  74.113  0.00  0.00    -0.038 A 
ATOM      4  C   UNL     1      33.052  50.821  73.722  0.00  0.00    +0.047 A 
ATOM      5  C   UNL     1      34.156  50.334  74.424  0.00  0.00    +0.003 A 
ATOM      6  C   UNL     1      34.586  51.043  75.566  0.00  0.00    -0.052 A 
ATOM      7  N   UNL     1      32.849  49.981  72.653  0.00  0.00    -0.360 N 
ATOM      8  C   UNL     1      33.756  48.957  72.676  0.00  0.00    +0.006 A 
ATOM      9  C   UNL     1      34.589  49.135  73.765  0.00  0.00    -0.012 A 
ATOM     10  H   UNL     1      32.150  50.099  71.970  0.00  0.00    +0.000 HD
ENDROOT
BRANCH   9  11
ATOM     11  C   UNL     1      35.689  48.213  74.192  0.00  0.00    +0.072 C 
BRANCH  11  12
ATOM     12  C   UNL     1      37.052  48.569  73.638  0.00  0.00    +0.311 C 
ATOM     13  O   UNL     1      37.893  49.290  74.156  0.00  0.00    -0.250 OA
BRANCH  12  14
ATOM     14  O   UNL     1      37.199  47.958  72.420  0.00  0.00    -0.468 OA
ATOM     15  C   UNL     1      37.415  48.847  71.321  0.00  0.00    +0.082 C 
ENDBRANCH  12  14
ENDBRANCH  11  12
ENDBRANCH   9  11
TORSDOF 3
ENDMDL
