MODEL 1
REMARK VINA RESULT:    -7.358      0.000      0.000
REMARK INTER + INTRA:         -10.354
REMARK INTER:                  -9.509
REMARK INTRA:                  -0.845
REMARK UNBOUND:                -0.845
REMARK  Name = 7a.sdf
REMARK  6 active torsions:
REMARK  status: ('A' for Active; 'I' for Inactive)
REMARK    1  A    between atoms: N_7  and  C_12
REMARK    2  A    between atoms: C_9  and  C_10
REMARK    3  A    between atoms: C_10  and  C_11
REMARK    4  A    between atoms: C_11  and  O_21
REMARK    5  A    between atoms: C_12  and  C_13
REMARK    6  A    between atoms: O_21  and  C_22
REMARK                            x       y       z     vdW  Elec       q    Type
REMARK                         _______ _______ _______ _____ _____    ______ ____
ROOT
ATOM      1  C   UNL     1      33.777  52.222  75.565  0.00  0.00    -0.061 A 
ATOM      2  C   UNL     1      32.663  52.464  74.768  0.00  0.00    -0.060 A 
ATOM      3  C   UNL     1      32.325  51.597  73.716  0.00  0.00    -0.038 A 
ATOM      4  C   UNL     1      33.159  50.492  73.460  0.00  0.00    +0.050 A 
ATOM      5  C   UNL     1      34.250  50.202  74.294  0.00  0.00    +0.004 A 
ATOM      6  C   UNL     1      34.557  51.085  75.353  0.00  0.00    -0.052 A 
ATOM      7  N   UNL     1      33.158  49.533  72.457  0.00  0.00    -0.342 N 
ATOM      8  C   UNL     1      34.139  48.604  72.710  0.00  0.00    +0.010 A 
ATOM      9  C   UNL     1      34.828  48.972  73.849  0.00  0.00    -0.012 A 
ENDROOT
BRANCH   9  10
ATOM     10  C   UNL     1      35.953  48.213  74.485  0.00  0.00    +0.072 C 
BRANCH  10  11
ATOM     11  C   UNL     1      37.223  48.187  73.659  0.00  0.00    +0.311 C 
ATOM     12  O   UNL     1      37.459  47.434  72.717  0.00  0.00    -0.250 OA
BRANCH  11  13
ATOM     13  O   UNL     1      38.092  49.133  74.124  0.00  0.00    -0.468 OA
ATOM     14  C   UNL     1      39.431  48.964  73.644  0.00  0.00    +0.082 C 
ENDBRANCH  11  13
ENDBRANCH  10  11
ENDBRANCH   9  10
BRANCH   7  15
ATOM     15  C   UNL     1      32.369  49.524  71.222  0.00  0.00    +0.048 C 
BRANCH  15  16
ATOM     16  C   UNL     1      33.172  49.983  70.027  0.00  0.00    -0.028 A 
ATOM     17  C   UNL     1      33.838  51.215  70.066  0.00  0.00    -0.056 A 
ATOM     18  C   UNL     1      34.400  51.751  68.907  0.00  0.00    -0.047 A 
ATOM     19  C   UNL     1      34.330  51.040  67.712  0.00  0.00    +0.018 A 
ATOM     20  C   UNL     1      33.773  49.763  67.682  0.00  0.00    -0.047 A 
ATOM     21  C   UNL     1      33.197  49.235  68.839  0.00  0.00    -0.056 A 
ATOM     22 BR   UNL     1      34.919  51.847  66.107  0.00  0.00    -0.050 Br
ENDBRANCH  15  16
ENDBRANCH   7  15
TORSDOF 5
ENDMDL
MODEL 2
REMARK VINA RESULT:    -6.991      2.596      3.831
REMARK INTER + INTRA:          -9.879
REMARK INTER:                  -9.100
REMARK INTRA:                  -0.780
REMARK UNBOUND:                -0.845
REMARK  Name = 7a.sdf
REMARK  6 active torsions:
REMARK  status: ('A' for Active; 'I' for Inactive)
REMARK    1  A    between atoms: N_7  and  C_12
REMARK    2  A    between atoms: C_9  and  C_10
REMARK    3  A    between atoms: C_10  and  C_11
REMARK    4  A    between atoms: C_11  and  O_21
REMARK    5  A    between atoms: C_12  and  C_13
REMARK    6  A    between atoms: O_21  and  C_22
REMARK                            x       y       z     vdW  Elec       q    Type
REMARK                         _______ _______ _______ _____ _____    ______ ____
ROOT
ATOM      1  C   UNL     1      36.069  51.697  76.226  0.00  0.00    -0.061 A 
ATOM      2  C   UNL     1      35.089  50.839  75.741  0.00  0.00    -0.060 A 
ATOM      3  C   UNL     1      35.416  49.783  74.874  0.00  0.00    -0.038 A 
ATOM      4  C   UNL     1      36.758  49.630  74.478  0.00  0.00    +0.050 A 
ATOM      5  C   UNL     1      37.767  50.450  75.008  0.00  0.00    +0.004 A 
ATOM      6  C   UNL     1      37.408  51.495  75.888  0.00  0.00    -0.052 A 
ATOM      7  N   UNL     1      37.375  48.775  73.575  0.00  0.00    -0.342 N 
ATOM      8  C   UNL     1      38.736  48.966  73.617  0.00  0.00    +0.010 A 
ATOM      9  C   UNL     1      39.022  49.984  74.505  0.00  0.00    -0.012 A 
ENDROOT
BRANCH   9  10
ATOM     10  C   UNL     1      40.388  50.483  74.867  0.00  0.00    +0.072 C 
BRANCH  10  11
ATOM     11  C   UNL     1      41.409  49.383  75.079  0.00  0.00    +0.311 C 
ATOM     12  O   UNL     1      42.205  48.963  74.243  0.00  0.00    -0.250 OA
BRANCH  11  13
ATOM     13  O   UNL     1      41.312  48.906  76.356  0.00  0.00    -0.468 OA
ATOM     14  C   UNL     1      42.579  48.732  76.999  0.00  0.00    +0.082 C 
ENDBRANCH  11  13
ENDBRANCH  10  11
ENDBRANCH   9  10
BRANCH   7  15
ATOM     15  C   UNL     1      36.738  47.887  72.598  0.00  0.00    +0.048 C 
BRANCH  15  16
ATOM     16  C   UNL     1      36.030  48.655  71.505  0.00  0.00    -0.028 A 
ATOM     17  C   UNL     1      34.645  48.849  71.573  0.00  0.00    -0.056 A 
ATOM     18  C   UNL     1      33.948  49.361  70.478  0.00  0.00    -0.047 A 
ATOM     19  C   UNL     1      34.641  49.717  69.324  0.00  0.00    +0.018 A 
ATOM     20  C   UNL     1      36.031  49.638  69.282  0.00  0.00    -0.047 A 
ATOM     21  C   UNL     1      36.725  49.110  70.373  0.00  0.00    -0.056 A 
ATOM     22 BR   UNL     1      33.682  50.229  67.777  0.00  0.00    -0.050 Br
ENDBRANCH  15  16
ENDBRANCH   7  15
TORSDOF 5
ENDMDL
MODEL 3
REMARK VINA RESULT:    -6.946      2.926      5.402
REMARK INTER + INTRA:          -9.821
REMARK INTER:                  -8.901
REMARK INTRA:                  -0.920
REMARK UNBOUND:                -0.845
REMARK  Name = 7a.sdf
REMARK  6 active torsions:
REMARK  status: ('A' for Active; 'I' for Inactive)
REMARK    1  A    between atoms: N_7  and  C_12
REMARK    2  A    between atoms: C_9  and  C_10
REMARK    3  A    between atoms: C_10  and  C_11
REMARK    4  A    between atoms: C_11  and  O_21
REMARK    5  A    between atoms: C_12  and  C_13
REMARK    6  A    between atoms: O_21  and  C_22
REMARK                            x       y       z     vdW  Elec       q    Type
REMARK                         _______ _______ _______ _____ _____    ______ ____
ROOT
ATOM      1  C   UNL     1      34.084  51.732  75.464  0.00  0.00    -0.061 A 
ATOM      2  C   UNL     1      35.387  51.470  75.873  0.00  0.00    -0.060 A 
ATOM      3  C   UNL     1      36.155  50.473  75.249  0.00  0.00    -0.038 A 
ATOM      4  C   UNL     1      35.565  49.718  74.218  0.00  0.00    +0.050 A 
ATOM      5  C   UNL     1      34.275  50.013  73.753  0.00  0.00    +0.004 A 
ATOM      6  C   UNL     1      33.532  51.030  74.392  0.00  0.00    -0.052 A 
ATOM      7  N   UNL     1      36.009  48.622  73.491  0.00  0.00    -0.342 N 
ATOM      8  C   UNL     1      35.084  48.308  72.523  0.00  0.00    +0.010 A 
ATOM      9  C   UNL     1      34.001  49.156  72.640  0.00  0.00    -0.012 A 
ENDROOT
BRANCH   9  10
ATOM     10  C   UNL     1      32.790  49.169  71.758  0.00  0.00    +0.072 C 
BRANCH  10  11
ATOM     11  C   UNL     1      33.076  49.574  70.326  0.00  0.00    +0.311 C 
ATOM     12  O   UNL     1      32.727  48.964  69.319  0.00  0.00    -0.250 OA
BRANCH  11  13
ATOM     13  O   UNL     1      33.799  50.732  70.312  0.00  0.00    -0.468 OA
ATOM     14  C   UNL     1      34.862  50.731  69.352  0.00  0.00    +0.082 C 
ENDBRANCH  11  13
ENDBRANCH  10  11
ENDBRANCH   9  10
BRANCH   7  15
ATOM     15  C   UNL     1      37.191  47.793  73.745  0.00  0.00    +0.048 C 
BRANCH  15  16
ATOM     16  C   UNL     1      38.454  48.415  73.197  0.00  0.00    -0.028 A 
ATOM     17  C   UNL     1      39.573  48.572  74.025  0.00  0.00    -0.056 A 
ATOM     18  C   UNL     1      40.663  49.333  73.605  0.00  0.00    -0.047 A 
ATOM     19  C   UNL     1      40.655  49.910  72.338  0.00  0.00    +0.018 A 
ATOM     20  C   UNL     1      39.602  49.669  71.458  0.00  0.00    -0.047 A 
ATOM     21  C   UNL     1      38.504  48.919  71.887  0.00  0.00    -0.056 A 
ATOM     22 BR   UNL     1      42.041  51.096  71.841  0.00  0.00    -0.050 Br
ENDBRANCH  15  16
ENDBRANCH   7  15
TORSDOF 5
ENDMDL
