MODEL 1
REMARK VINA RESULT:    -7.452      0.000      0.000
REMARK INTER + INTRA:          -9.105
REMARK INTER:                  -8.759
REMARK INTRA:                  -0.346
REMARK UNBOUND:                -0.346
REMARK  Name = 8.sdf
REMARK  3 active torsions:
REMARK  status: ('A' for Active; 'I' for Inactive)
REMARK    1  A    between atoms: C_9  and  C_10
REMARK    2  A    between atoms: N_11  and  N_12
REMARK    3  A    between atoms: C_13  and  C_15
REMARK                            x       y       z     vdW  Elec       q    Type
REMARK                         _______ _______ _______ _____ _____    ______ ____
ROOT
ATOM      1  C   UNL     1      33.704  49.454  69.897  0.00  0.00    +0.055 C 
ATOM      2  N   UNL     1      32.486  49.021  69.898  0.00  0.00    -0.187 NA
ENDROOT
BRANCH   1  11
ATOM      3  C   UNL     1      33.902  50.595  74.457  0.00  0.00    -0.061 A 
ATOM      4  C   UNL     1      34.941  49.938  75.110  0.00  0.00    -0.060 A 
ATOM      5  C   UNL     1      35.788  49.069  74.418  0.00  0.00    -0.038 A 
ATOM      6  C   UNL     1      35.548  48.880  73.052  0.00  0.00    +0.047 A 
ATOM      7  C   UNL     1      34.514  49.519  72.364  0.00  0.00    +0.008 A 
ATOM      8  C   UNL     1      33.678  50.398  73.087  0.00  0.00    -0.052 A 
ATOM      9  N   UNL     1      36.214  48.090  72.143  0.00  0.00    -0.360 N 
ATOM     10  C   UNL     1      35.633  48.200  70.913  0.00  0.00    +0.011 A 
ATOM     11  C   UNL     1      34.570  49.081  71.000  0.00  0.00    +0.020 A 
ATOM     12  H   UNL     1      36.995  47.528  72.351  0.00  0.00    +0.000 HD
ENDBRANCH   1  11
BRANCH   2  13
ATOM     13  N   UNL     1      31.678  49.383  68.858  0.00  0.00    -0.203 N 
ATOM     14  C   UNL     1      30.669  50.307  69.105  0.00  0.00    +0.263 C 
ATOM     15  O   UNL     1      30.455  50.837  70.193  0.00  0.00    -0.268 OA
ATOM     16  H   UNL     1      31.807  49.002  67.960  0.00  0.00    +0.000 HD
BRANCH  14  17
ATOM     17  C   UNL     1      29.806  50.687  67.950  0.00  0.00    +0.038 A 
ATOM     18  C   UNL     1      28.555  50.103  67.717  0.00  0.00    -0.049 A 
ATOM     19  C   UNL     1      27.770  50.541  66.642  0.00  0.00    -0.047 A 
ATOM     20  C   UNL     1      28.231  51.559  65.808  0.00  0.00    +0.018 A 
ATOM     21  C   UNL     1      29.472  52.152  66.035  0.00  0.00    -0.047 A 
ATOM     22  C   UNL     1      30.255  51.718  67.109  0.00  0.00    -0.049 A 
ATOM     23 BR   UNL     1      27.157  52.158  64.374  0.00  0.00    -0.050 Br
ENDBRANCH  14  17
ENDBRANCH   2  13
TORSDOF 3
ENDMDL
MODEL 2
REMARK VINA RESULT:    -7.429      8.729     12.775
REMARK INTER + INTRA:          -9.077
REMARK INTER:                  -8.782
REMARK INTRA:                  -0.295
REMARK UNBOUND:                -0.346
REMARK  Name = 8.sdf
REMARK  3 active torsions:
REMARK  status: ('A' for Active; 'I' for Inactive)
REMARK    1  A    between atoms: C_9  and  C_10
REMARK    2  A    between atoms: N_11  and  N_12
REMARK    3  A    between atoms: C_13  and  C_15
REMARK                            x       y       z     vdW  Elec       q    Type
REMARK                         _______ _______ _______ _____ _____    ______ ____
ROOT
ATOM      1  C   UNL     1      36.638  53.177  76.727  0.00  0.00    +0.055 C 
ATOM      2  N   UNL     1      36.607  54.317  77.335  0.00  0.00    -0.187 NA
ENDROOT
BRANCH   1  11
ATOM      3  C   UNL     1      35.243  49.258  74.529  0.00  0.00    -0.061 A 
ATOM      4  C   UNL     1      34.116  49.478  73.741  0.00  0.00    -0.060 A 
ATOM      5  C   UNL     1      33.538  50.747  73.658  0.00  0.00    -0.038 A 
ATOM      6  C   UNL     1      34.126  51.779  74.398  0.00  0.00    +0.047 A 
ATOM      7  C   UNL     1      35.254  51.594  75.201  0.00  0.00    +0.008 A 
ATOM      8  C   UNL     1      35.823  50.303  75.261  0.00  0.00    -0.052 A 
ATOM      9  N   UNL     1      33.765  53.103  74.502  0.00  0.00    -0.360 N 
ATOM     10  C   UNL     1      34.616  53.755  75.347  0.00  0.00    +0.011 A 
ATOM     11  C   UNL     1      35.563  52.856  75.806  0.00  0.00    +0.020 A 
ATOM     12  H   UNL     1      33.004  53.518  74.035  0.00  0.00    +0.000 HD
ENDBRANCH   1  11
BRANCH   2  13
ATOM     13  N   UNL     1      37.619  54.605  78.205  0.00  0.00    -0.203 N 
ATOM     14  C   UNL     1      37.810  55.933  78.571  0.00  0.00    +0.263 C 
ATOM     15  O   UNL     1      37.122  56.873  78.180  0.00  0.00    -0.268 OA
ATOM     16  H   UNL     1      38.198  53.893  78.562  0.00  0.00    +0.000 HD
BRANCH  14  17
ATOM     17  C   UNL     1      38.918  56.216  79.526  0.00  0.00    +0.038 A 
ATOM     18  C   UNL     1      38.995  57.403  80.264  0.00  0.00    -0.049 A 
ATOM     19  C   UNL     1      40.036  57.588  81.184  0.00  0.00    -0.047 A 
ATOM     20  C   UNL     1      40.992  56.589  81.367  0.00  0.00    +0.018 A 
ATOM     21  C   UNL     1      40.922  55.401  80.643  0.00  0.00    -0.047 A 
ATOM     22  C   UNL     1      39.882  55.215  79.727  0.00  0.00    -0.049 A 
ATOM     23 BR   UNL     1      42.381  56.838  82.624  0.00  0.00    -0.050 Br
ENDBRANCH  14  17
ENDBRANCH   2  13
TORSDOF 3
ENDMDL
MODEL 3
REMARK VINA RESULT:    -7.409      9.308     12.298
REMARK INTER + INTRA:          -9.054
REMARK INTER:                  -8.764
REMARK INTRA:                  -0.290
REMARK UNBOUND:                -0.346
REMARK  Name = 8.sdf
REMARK  3 active torsions:
REMARK  status: ('A' for Active; 'I' for Inactive)
REMARK    1  A    between atoms: C_9  and  C_10
REMARK    2  A    between atoms: N_11  and  N_12
REMARK    3  A    between atoms: C_13  and  C_15
REMARK                            x       y       z     vdW  Elec       q    Type
REMARK                         _______ _______ _______ _____ _____    ______ ____
ROOT
ATOM      1  C   UNL     1      39.201  55.329  79.277  0.00  0.00    +0.055 C 
ATOM      2  N   UNL     1      38.246  55.397  78.409  0.00  0.00    -0.187 NA
ENDROOT
BRANCH   1  11
ATOM      3  C   UNL     1      42.651  56.419  82.285  0.00  0.00    -0.061 A 
ATOM      4  C   UNL     1      42.667  57.779  82.583  0.00  0.00    -0.060 A 
ATOM      5  C   UNL     1      41.727  58.647  82.023  0.00  0.00    -0.038 A 
ATOM      6  C   UNL     1      40.778  58.102  81.150  0.00  0.00    +0.047 A 
ATOM      7  C   UNL     1      40.734  56.744  80.826  0.00  0.00    +0.008 A 
ATOM      8  C   UNL     1      41.691  55.888  81.412  0.00  0.00    -0.052 A 
ATOM      9  N   UNL     1      39.757  58.719  80.465  0.00  0.00    -0.360 N 
ATOM     10  C   UNL     1      39.077  57.803  79.716  0.00  0.00    +0.011 A 
ATOM     11  C   UNL     1      39.648  56.557  79.908  0.00  0.00    +0.020 A 
ATOM     12  H   UNL     1      39.547  59.679  80.511  0.00  0.00    +0.000 HD
ENDBRANCH   1  11
BRANCH   2  13
ATOM     13  N   UNL     1      37.838  54.237  77.815  0.00  0.00    -0.203 N 
ATOM     14  C   UNL     1      36.654  54.255  77.087  0.00  0.00    +0.263 C 
ATOM     15  O   UNL     1      35.947  55.247  76.923  0.00  0.00    -0.268 OA
ATOM     16  H   UNL     1      38.368  53.412  77.899  0.00  0.00    +0.000 HD
BRANCH  14  17
ATOM     17  C   UNL     1      36.238  52.976  76.445  0.00  0.00    +0.038 A 
ATOM     18  C   UNL     1      34.899  52.667  76.175  0.00  0.00    -0.049 A 
ATOM     19  C   UNL     1      34.577  51.469  75.523  0.00  0.00    -0.047 A 
ATOM     20  C   UNL     1      35.588  50.587  75.141  0.00  0.00    +0.018 A 
ATOM     21  C   UNL     1      36.923  50.888  75.399  0.00  0.00    -0.047 A 
ATOM     22  C   UNL     1      37.246  52.084  76.046  0.00  0.00    -0.049 A 
ATOM     23 BR   UNL     1      35.146  48.984  74.244  0.00  0.00    -0.050 Br
ENDBRANCH  14  17
ENDBRANCH   2  13
TORSDOF 3
ENDMDL
