MODEL 1
REMARK VINA RESULT:    -8.197      0.000      0.000
REMARK INTER + INTRA:         -11.409
REMARK INTER:                 -10.593
REMARK INTRA:                  -0.816
REMARK UNBOUND:                -0.816
REMARK  Name = 8b.sdf
REMARK  5 active torsions:
REMARK  status: ('A' for Active; 'I' for Inactive)
REMARK    1  A    between atoms: N_7  and  C_12
REMARK    2  A    between atoms: C_9  and  C_10
REMARK    3  A    between atoms: N_11  and  N_19
REMARK    4  A    between atoms: C_12  and  C_13
REMARK    5  A    between atoms: C_20  and  C_22
REMARK                            x       y       z     vdW  Elec       q    Type
REMARK                         _______ _______ _______ _____ _____    ______ ____
ROOT
ATOM      1  C   UNL     1      33.962  51.090  75.015  0.00  0.00    -0.061 A 
ATOM      2  C   UNL     1      35.213  50.846  75.569  0.00  0.00    -0.060 A 
ATOM      3  C   UNL     1      36.120  49.979  74.949  0.00  0.00    -0.038 A 
ATOM      4  C   UNL     1      35.737  49.357  73.748  0.00  0.00    +0.050 A 
ATOM      5  C   UNL     1      34.502  49.633  73.144  0.00  0.00    +0.009 A 
ATOM      6  C   UNL     1      33.603  50.503  73.800  0.00  0.00    -0.052 A 
ATOM      7  N   UNL     1      36.372  48.419  72.952  0.00  0.00    -0.342 N 
ATOM      8  C   UNL     1      35.613  48.170  71.836  0.00  0.00    +0.015 A 
ATOM      9  C   UNL     1      34.455  48.918  71.907  0.00  0.00    +0.020 A 
ENDROOT
BRANCH   9  10
ATOM     10  C   UNL     1      33.404  48.957  70.912  0.00  0.00    +0.055 C 
ATOM     11  N   UNL     1      33.065  50.088  70.379  0.00  0.00    -0.187 NA
BRANCH  11  12
ATOM     12  N   UNL     1      32.056  50.038  69.461  0.00  0.00    -0.203 N 
ATOM     13  C   UNL     1      31.310  51.184  69.203  0.00  0.00    +0.263 C 
ATOM     14  O   UNL     1      31.487  52.276  69.728  0.00  0.00    -0.268 OA
ATOM     15  H   UNL     1      31.858  49.199  68.986  0.00  0.00    +0.000 HD
BRANCH  13  16
ATOM     16  C   UNL     1      30.246  51.040  68.167  0.00  0.00    +0.038 A 
ATOM     17  C   UNL     1      29.152  50.179  68.325  0.00  0.00    -0.049 A 
ATOM     18  C   UNL     1      28.190  50.072  67.314  0.00  0.00    -0.047 A 
ATOM     19  C   UNL     1      28.317  50.833  66.151  0.00  0.00    +0.018 A 
ATOM     20  C   UNL     1      29.384  51.714  65.996  0.00  0.00    -0.047 A 
ATOM     21  C   UNL     1      30.346  51.820  67.005  0.00  0.00    -0.049 A 
ATOM     22 BR   UNL     1      27.026  50.672  64.780  0.00  0.00    -0.050 Br
ENDBRANCH  13  16
ENDBRANCH  11  12
ENDBRANCH   9  10
BRANCH   7  23
ATOM     23  C   UNL     1      37.592  47.680  73.275  0.00  0.00    +0.048 C 
BRANCH  23  24
ATOM     24  C   UNL     1      38.832  48.501  73.037  0.00  0.00    -0.025 A 
ATOM     25  C   UNL     1      39.042  49.142  71.812  0.00  0.00    -0.039 A 
ATOM     26  C   UNL     1      40.234  49.821  71.611  0.00  0.00    +0.028 A 
ATOM     27  N   UNL     1      41.206  49.924  72.539  0.00  0.00    -0.263 NA
ATOM     28  C   UNL     1      40.976  49.322  73.725  0.00  0.00    +0.028 A 
ATOM     29  C   UNL     1      39.822  48.614  74.020  0.00  0.00    -0.039 A 
ENDBRANCH  23  24
ENDBRANCH   7  23
TORSDOF 5
ENDMDL
MODEL 2
REMARK VINA RESULT:    -8.183      8.945     11.409
REMARK INTER + INTRA:         -11.391
REMARK INTER:                 -10.559
REMARK INTRA:                  -0.832
REMARK UNBOUND:                -0.816
REMARK  Name = 8b.sdf
REMARK  5 active torsions:
REMARK  status: ('A' for Active; 'I' for Inactive)
REMARK    1  A    between atoms: N_7  and  C_12
REMARK    2  A    between atoms: C_9  and  C_10
REMARK    3  A    between atoms: N_11  and  N_19
REMARK    4  A    between atoms: C_12  and  C_13
REMARK    5  A    between atoms: C_20  and  C_22
REMARK                            x       y       z     vdW  Elec       q    Type
REMARK                         _______ _______ _______ _____ _____    ______ ____
ROOT
ATOM      1  C   UNL     1      38.622  59.643  77.528  0.00  0.00    -0.061 A 
ATOM      2  C   UNL     1      39.254  60.340  78.552  0.00  0.00    -0.060 A 
ATOM      3  C   UNL     1      39.782  59.670  79.661  0.00  0.00    -0.038 A 
ATOM      4  C   UNL     1      39.658  58.271  79.719  0.00  0.00    +0.050 A 
ATOM      5  C   UNL     1      39.075  57.545  78.671  0.00  0.00    +0.009 A 
ATOM      6  C   UNL     1      38.540  58.250  77.570  0.00  0.00    -0.052 A 
ATOM      7  N   UNL     1      40.010  57.354  80.695  0.00  0.00    -0.342 N 
ATOM      8  C   UNL     1      39.743  56.082  80.252  0.00  0.00    +0.015 A 
ATOM      9  C   UNL     1      39.181  56.157  78.993  0.00  0.00    +0.020 A 
ENDROOT
BRANCH   9  10
ATOM     10  C   UNL     1      38.780  55.032  78.172  0.00  0.00    +0.055 C 
ATOM     11  N   UNL     1      37.528  54.858  77.890  0.00  0.00    -0.187 NA
BRANCH  11  12
ATOM     12  N   UNL     1      37.235  53.766  77.125  0.00  0.00    -0.203 N 
ATOM     13  C   UNL     1      35.904  53.429  76.897  0.00  0.00    +0.263 C 
ATOM     14  O   UNL     1      34.935  54.047  77.321  0.00  0.00    -0.268 OA
ATOM     15  H   UNL     1      37.958  53.223  76.736  0.00  0.00    +0.000 HD
BRANCH  13  16
ATOM     16  C   UNL     1      35.681  52.236  76.029  0.00  0.00    +0.038 A 
ATOM     17  C   UNL     1      36.695  51.314  75.741  0.00  0.00    -0.049 A 
ATOM     18  C   UNL     1      36.433  50.220  74.908  0.00  0.00    -0.047 A 
ATOM     19  C   UNL     1      35.157  50.044  74.372  0.00  0.00    +0.018 A 
ATOM     20  C   UNL     1      34.134  50.938  74.675  0.00  0.00    -0.047 A 
ATOM     21  C   UNL     1      34.395  52.031  75.507  0.00  0.00    -0.049 A 
ATOM     22 BR   UNL     1      34.813  48.575  73.232  0.00  0.00    -0.050 Br
ENDBRANCH  13  16
ENDBRANCH  11  12
ENDBRANCH   9  10
BRANCH   7  23
ATOM     23  C   UNL     1      40.468  57.652  82.051  0.00  0.00    +0.048 C 
BRANCH  23  24
ATOM     24  C   UNL     1      41.934  57.992  82.093  0.00  0.00    -0.025 A 
ATOM     25  C   UNL     1      42.387  59.127  82.772  0.00  0.00    -0.039 A 
ATOM     26  C   UNL     1      43.735  59.444  82.718  0.00  0.00    +0.028 A 
ATOM     27  N   UNL     1      44.654  58.706  82.063  0.00  0.00    -0.263 NA
ATOM     28  C   UNL     1      44.206  57.599  81.434  0.00  0.00    +0.028 A 
ATOM     29  C   UNL     1      42.877  57.204  81.424  0.00  0.00    -0.039 A 
ENDBRANCH  23  24
ENDBRANCH   7  23
TORSDOF 5
ENDMDL
MODEL 3
REMARK VINA RESULT:    -7.949      6.515     10.330
REMARK INTER + INTRA:         -11.089
REMARK INTER:                 -10.199
REMARK INTRA:                  -0.890
REMARK UNBOUND:                -0.816
REMARK  Name = 8b.sdf
REMARK  5 active torsions:
REMARK  status: ('A' for Active; 'I' for Inactive)
REMARK    1  A    between atoms: N_7  and  C_12
REMARK    2  A    between atoms: C_9  and  C_10
REMARK    3  A    between atoms: N_11  and  N_19
REMARK    4  A    between atoms: C_12  and  C_13
REMARK    5  A    between atoms: C_20  and  C_22
REMARK                            x       y       z     vdW  Elec       q    Type
REMARK                         _______ _______ _______ _____ _____    ______ ____
ROOT
ATOM      1  C   UNL     1      32.585  53.314  74.267  0.00  0.00    -0.061 A 
ATOM      2  C   UNL     1      32.073  52.211  73.593  0.00  0.00    -0.060 A 
ATOM      3  C   UNL     1      32.750  50.986  73.596  0.00  0.00    -0.038 A 
ATOM      4  C   UNL     1      33.966  50.895  74.297  0.00  0.00    +0.050 A 
ATOM      5  C   UNL     1      34.469  51.979  75.029  0.00  0.00    +0.009 A 
ATOM      6  C   UNL     1      33.770  53.206  74.998  0.00  0.00    -0.052 A 
ATOM      7  N   UNL     1      34.880  49.865  74.426  0.00  0.00    -0.342 N 
ATOM      8  C   UNL     1      35.887  50.244  75.279  0.00  0.00    +0.015 A 
ATOM      9  C   UNL     1      35.658  51.541  75.691  0.00  0.00    +0.020 A 
ENDROOT
BRANCH   9  10
ATOM     10  C   UNL     1      36.478  52.298  76.614  0.00  0.00    +0.055 C 
ATOM     11  N   UNL     1      37.188  53.290  76.178  0.00  0.00    -0.187 NA
BRANCH  11  12
ATOM     12  N   UNL     1      37.944  53.939  77.111  0.00  0.00    -0.203 N 
ATOM     13  C   UNL     1      37.427  55.065  77.745  0.00  0.00    +0.263 C 
ATOM     14  O   UNL     1      36.315  55.538  77.551  0.00  0.00    -0.268 OA
ATOM     15  H   UNL     1      38.846  53.614  77.333  0.00  0.00    +0.000 HD
BRANCH  13  16
ATOM     16  C   UNL     1      38.315  55.693  78.767  0.00  0.00    +0.038 A 
ATOM     17  C   UNL     1      38.027  56.930  79.358  0.00  0.00    -0.049 A 
ATOM     18  C   UNL     1      38.904  57.479  80.301  0.00  0.00    -0.047 A 
ATOM     19  C   UNL     1      40.062  56.787  80.659  0.00  0.00    +0.018 A 
ATOM     20  C   UNL     1      40.343  55.544  80.100  0.00  0.00    -0.047 A 
ATOM     21  C   UNL     1      39.468  54.995  79.158  0.00  0.00    -0.049 A 
ATOM     22 BR   UNL     1      41.252  57.541  81.919  0.00  0.00    -0.050 Br
ENDBRANCH  13  16
ENDBRANCH  11  12
ENDBRANCH   9  10
BRANCH   7  23
ATOM     23  C   UNL     1      34.889  48.605  73.684  0.00  0.00    +0.048 C 
BRANCH  23  24
ATOM     24  C   UNL     1      35.410  48.776  72.281  0.00  0.00    -0.025 A 
ATOM     25  C   UNL     1      36.782  48.727  72.016  0.00  0.00    -0.039 A 
ATOM     26  C   UNL     1      37.221  48.968  70.724  0.00  0.00    +0.028 A 
ATOM     27  N   UNL     1      36.399  49.226  69.687  0.00  0.00    -0.263 NA
ATOM     28  C   UNL     1      35.075  49.244  69.954  0.00  0.00    +0.028 A 
ATOM     29  C   UNL     1      34.540  49.024  71.214  0.00  0.00    -0.039 A 
ENDBRANCH  23  24
ENDBRANCH   7  23
TORSDOF 5
ENDMDL
