MODEL 1
REMARK VINA RESULT:    -8.526      0.000      0.000
REMARK INTER + INTRA:         -11.748
REMARK INTER:                 -11.018
REMARK INTRA:                  -0.730
REMARK UNBOUND:                -0.730
REMARK  Name = 8c.sdf
REMARK  5 active torsions:
REMARK  status: ('A' for Active; 'I' for Inactive)
REMARK    1  A    between atoms: N_7  and  C_12
REMARK    2  A    between atoms: C_9  and  C_10
REMARK    3  A    between atoms: N_11  and  N_20
REMARK    4  A    between atoms: C_12  and  C_13
REMARK    5  A    between atoms: C_21  and  C_23
REMARK                            x       y       z     vdW  Elec       q    Type
REMARK                         _______ _______ _______ _____ _____    ______ ____
ROOT
ATOM      1  C   UNL     1      40.185  50.110  72.140  0.00  0.00    -0.061 A 
ATOM      2  C   UNL     1      39.262  49.316  71.469  0.00  0.00    -0.060 A 
ATOM      3  C   UNL     1      38.016  49.028  72.036  0.00  0.00    -0.038 A 
ATOM      4  C   UNL     1      37.713  49.568  73.296  0.00  0.00    +0.050 A 
ATOM      5  C   UNL     1      38.609  50.407  73.971  0.00  0.00    +0.009 A 
ATOM      6  C   UNL     1      39.870  50.663  73.383  0.00  0.00    -0.052 A 
ATOM      7  N   UNL     1      36.605  49.430  74.110  0.00  0.00    -0.342 N 
ATOM      8  C   UNL     1      36.750  50.208  75.231  0.00  0.00    +0.015 A 
ATOM      9  C   UNL     1      37.979  50.839  75.179  0.00  0.00    +0.020 A 
ENDROOT
BRANCH   9  10
ATOM     10  C   UNL     1      38.506  51.759  76.163  0.00  0.00    +0.055 C 
ATOM     11  N   UNL     1      38.355  53.034  75.999  0.00  0.00    -0.187 NA
BRANCH  11  12
ATOM     12  N   UNL     1      38.893  53.828  76.973  0.00  0.00    -0.203 N 
ATOM     13  C   UNL     1      38.057  54.637  77.732  0.00  0.00    +0.263 C 
ATOM     14  O   UNL     1      36.835  54.696  77.622  0.00  0.00    -0.268 OA
ATOM     15  H   UNL     1      39.864  53.828  77.135  0.00  0.00    +0.000 HD
BRANCH  13  16
ATOM     16  C   UNL     1      38.730  55.456  78.782  0.00  0.00    +0.038 A 
ATOM     17  C   UNL     1      38.244  56.708  79.190  0.00  0.00    -0.049 A 
ATOM     18  C   UNL     1      38.917  57.436  80.177  0.00  0.00    -0.047 A 
ATOM     19  C   UNL     1      40.069  56.912  80.762  0.00  0.00    +0.018 A 
ATOM     20  C   UNL     1      40.550  55.660  80.381  0.00  0.00    -0.047 A 
ATOM     21  C   UNL     1      39.876  54.932  79.395  0.00  0.00    -0.049 A 
ATOM     22 BR   UNL     1      40.980  57.900  82.091  0.00  0.00    -0.050 Br
ENDBRANCH  13  16
ENDBRANCH  11  12
ENDBRANCH   9  10
BRANCH   7  23
ATOM     23  C   UNL     1      35.478  48.524  73.891  0.00  0.00    +0.048 C 
BRANCH  23  24
ATOM     24  C   UNL     1      34.304  49.234  73.265  0.00  0.00    -0.028 A 
ATOM     25  C   UNL     1      33.759  50.379  73.866  0.00  0.00    -0.055 A 
ATOM     26  C   UNL     1      32.611  50.978  73.343  0.00  0.00    -0.043 A 
ATOM     27  C   UNL     1      32.008  50.442  72.208  0.00  0.00    +0.041 A 
ATOM     28  C   UNL     1      32.562  49.335  71.571  0.00  0.00    -0.043 A 
ATOM     29  C   UNL     1      33.708  48.733  72.097  0.00  0.00    -0.055 A 
ATOM     30 CL   UNL     1      30.558  51.143  71.602  0.00  0.00    -0.084 Cl
ENDBRANCH  23  24
ENDBRANCH   7  23
TORSDOF 5
ENDMDL
MODEL 2
REMARK VINA RESULT:    -8.416      5.969      9.004
REMARK INTER + INTRA:         -11.606
REMARK INTER:                 -10.746
REMARK INTRA:                  -0.860
REMARK UNBOUND:                -0.730
REMARK  Name = 8c.sdf
REMARK  5 active torsions:
REMARK  status: ('A' for Active; 'I' for Inactive)
REMARK    1  A    between atoms: N_7  and  C_12
REMARK    2  A    between atoms: C_9  and  C_10
REMARK    3  A    between atoms: N_11  and  N_20
REMARK    4  A    between atoms: C_12  and  C_13
REMARK    5  A    between atoms: C_21  and  C_23
REMARK                            x       y       z     vdW  Elec       q    Type
REMARK                         _______ _______ _______ _____ _____    ______ ____
ROOT
ATOM      1  C   UNL     1      40.421  53.045  75.151  0.00  0.00    -0.061 A 
ATOM      2  C   UNL     1      39.788  52.181  76.037  0.00  0.00    -0.060 A 
ATOM      3  C   UNL     1      39.417  50.892  75.642  0.00  0.00    -0.038 A 
ATOM      4  C   UNL     1      39.708  50.484  74.330  0.00  0.00    +0.050 A 
ATOM      5  C   UNL     1      40.385  51.321  73.433  0.00  0.00    +0.009 A 
ATOM      6  C   UNL     1      40.729  52.627  73.854  0.00  0.00    -0.052 A 
ATOM      7  N   UNL     1      39.435  49.311  73.652  0.00  0.00    -0.342 N 
ATOM      8  C   UNL     1      39.978  49.362  72.393  0.00  0.00    +0.015 A 
ATOM      9  C   UNL     1      40.586  50.591  72.221  0.00  0.00    +0.020 A 
ENDROOT
BRANCH   9  10
ATOM     10  C   UNL     1      41.290  51.034  71.037  0.00  0.00    +0.055 C 
ATOM     11  N   UNL     1      41.983  50.189  70.344  0.00  0.00    -0.187 NA
BRANCH  11  12
ATOM     12  N   UNL     1      42.621  50.697  69.248  0.00  0.00    -0.203 N 
ATOM     13  C   UNL     1      43.973  51.008  69.329  0.00  0.00    +0.263 C 
ATOM     14  O   UNL     1      44.679  50.847  70.321  0.00  0.00    -0.268 OA
ATOM     15  H   UNL     1      42.128  50.843  68.409  0.00  0.00    +0.000 HD
BRANCH  13  16
ATOM     16  C   UNL     1      44.589  51.541  68.079  0.00  0.00    +0.038 A 
ATOM     17  C   UNL     1      45.974  51.715  67.935  0.00  0.00    -0.049 A 
ATOM     18  C   UNL     1      46.498  52.223  66.741  0.00  0.00    -0.047 A 
ATOM     19  C   UNL     1      45.642  52.549  65.690  0.00  0.00    +0.018 A 
ATOM     20  C   UNL     1      44.267  52.361  65.813  0.00  0.00    -0.047 A 
ATOM     21  C   UNL     1      43.743  51.853  67.007  0.00  0.00    -0.049 A 
ATOM     22 BR   UNL     1      46.353  53.241  64.081  0.00  0.00    -0.050 Br
ENDBRANCH  13  16
ENDBRANCH  11  12
ENDBRANCH   9  10
BRANCH   7  23
ATOM     23  C   UNL     1      38.607  48.206  74.135  0.00  0.00    +0.048 C 
BRANCH  23  24
ATOM     24  C   UNL     1      37.185  48.317  73.642  0.00  0.00    -0.028 A 
ATOM     25  C   UNL     1      36.854  47.944  72.330  0.00  0.00    -0.055 A 
ATOM     26  C   UNL     1      35.561  48.140  71.841  0.00  0.00    -0.043 A 
ATOM     27  C   UNL     1      34.587  48.698  72.666  0.00  0.00    +0.041 A 
ATOM     28  C   UNL     1      34.886  49.030  73.985  0.00  0.00    -0.043 A 
ATOM     29  C   UNL     1      36.181  48.838  74.472  0.00  0.00    -0.055 A 
ATOM     30 CL   UNL     1      33.011  48.997  72.043  0.00  0.00    -0.084 Cl
ENDBRANCH  23  24
ENDBRANCH   7  23
TORSDOF 5
ENDMDL
MODEL 3
REMARK VINA RESULT:    -8.355      1.667      2.316
REMARK INTER + INTRA:         -11.527
REMARK INTER:                 -10.637
REMARK INTRA:                  -0.890
REMARK UNBOUND:                -0.730
REMARK  Name = 8c.sdf
REMARK  5 active torsions:
REMARK  status: ('A' for Active; 'I' for Inactive)
REMARK    1  A    between atoms: N_7  and  C_12
REMARK    2  A    between atoms: C_9  and  C_10
REMARK    3  A    between atoms: N_11  and  N_20
REMARK    4  A    between atoms: C_12  and  C_13
REMARK    5  A    between atoms: C_21  and  C_23
REMARK                            x       y       z     vdW  Elec       q    Type
REMARK                         _______ _______ _______ _____ _____    ______ ____
ROOT
ATOM      1  C   UNL     1      42.249  51.514  71.584  0.00  0.00    -0.061 A 
ATOM      2  C   UNL     1      41.583  50.533  70.858  0.00  0.00    -0.060 A 
ATOM      3  C   UNL     1      40.594  49.745  71.455  0.00  0.00    -0.038 A 
ATOM      4  C   UNL     1      40.278  49.975  72.804  0.00  0.00    +0.050 A 
ATOM      5  C   UNL     1      40.903  50.988  73.543  0.00  0.00    +0.009 A 
ATOM      6  C   UNL     1      41.915  51.754  72.919  0.00  0.00    -0.052 A 
ATOM      7  N   UNL     1      39.394  49.345  73.659  0.00  0.00    -0.342 N 
ATOM      8  C   UNL     1      39.397  49.974  74.879  0.00  0.00    +0.015 A 
ATOM      9  C   UNL     1      40.314  51.006  74.845  0.00  0.00    +0.020 A 
ENDROOT
BRANCH   9  10
ATOM     10  C   UNL     1      40.606  51.922  75.927  0.00  0.00    +0.055 C 
ATOM     11  N   UNL     1      39.693  52.740  76.343  0.00  0.00    -0.187 NA
BRANCH  11  12
ATOM     12  N   UNL     1      40.059  53.574  77.361  0.00  0.00    -0.203 N 
ATOM     13  C   UNL     1      39.252  54.661  77.676  0.00  0.00    +0.263 C 
ATOM     14  O   UNL     1      38.195  54.943  77.120  0.00  0.00    -0.268 OA
ATOM     15  H   UNL     1      40.887  53.408  77.867  0.00  0.00    +0.000 HD
BRANCH  13  16
ATOM     16  C   UNL     1      39.723  55.506  78.812  0.00  0.00    +0.038 A 
ATOM     17  C   UNL     1      39.457  56.882  78.890  0.00  0.00    -0.049 A 
ATOM     18  C   UNL     1      39.926  57.628  79.976  0.00  0.00    -0.047 A 
ATOM     19  C   UNL     1      40.651  57.001  80.988  0.00  0.00    +0.018 A 
ATOM     20  C   UNL     1      40.903  55.631  80.934  0.00  0.00    -0.047 A 
ATOM     21  C   UNL     1      40.433  54.885  79.847  0.00  0.00    -0.049 A 
ATOM     22 BR   UNL     1      41.288  58.013  82.453  0.00  0.00    -0.050 Br
ENDBRANCH  13  16
ENDBRANCH  11  12
ENDBRANCH   9  10
BRANCH   7  23
ATOM     23  C   UNL     1      38.634  48.129  73.374  0.00  0.00    +0.048 C 
BRANCH  23  24
ATOM     24  C   UNL     1      37.204  48.438  73.005  0.00  0.00    -0.028 A 
ATOM     25  C   UNL     1      36.193  48.409  73.978  0.00  0.00    -0.055 A 
ATOM     26  C   UNL     1      34.857  48.596  73.620  0.00  0.00    -0.043 A 
ATOM     27  C   UNL     1      34.524  48.825  72.286  0.00  0.00    +0.041 A 
ATOM     28  C   UNL     1      35.519  48.904  71.315  0.00  0.00    -0.043 A 
ATOM     29  C   UNL     1      36.855  48.712  71.674  0.00  0.00    -0.055 A 
ATOM     30 CL   UNL     1      32.871  48.992  71.836  0.00  0.00    -0.084 Cl
ENDBRANCH  23  24
ENDBRANCH   7  23
TORSDOF 5
ENDMDL
