REMARK  Name = 26c.sdf
REMARK  7 active torsions:
REMARK  status: ('A' for Active; 'I' for Inactive)
REMARK    1  A    between atoms: N_7  and  C_10
REMARK    2  A    between atoms: C_9  and  C_18
REMARK    3  A    between atoms: C_10  and  C_11
REMARK    4  A    between atoms: N_19  and  N_20
REMARK    5  A    between atoms: C_21  and  C_23
REMARK    6  A    between atoms: C_26  and  O_29
REMARK    7  A    between atoms: C_28  and  O_30
REMARK                            x       y       z     vdW  Elec       q    Type
REMARK                         _______ _______ _______ _____ _____    ______ ____
ROOT
ATOM      1  C   UNL     1      -2.130  -0.930  -0.046  0.00  0.00    -0.061 A 
ATOM      2  C   UNL     1      -2.191   0.449  -0.211  0.00  0.00    -0.060 A 
ATOM      3  C   UNL     1      -1.025   1.221  -0.261  0.00  0.00    -0.038 A 
ATOM      4  C   UNL     1       0.216   0.571  -0.139  0.00  0.00    +0.050 A 
ATOM      5  C   UNL     1       0.301  -0.825  -0.030  0.00  0.00    +0.009 A 
ATOM      6  C   UNL     1      -0.894  -1.577   0.030  0.00  0.00    -0.052 A 
ATOM      7  N   UNL     1       1.509   1.058  -0.082  0.00  0.00    -0.342 N 
ATOM      8  C   UNL     1       2.395   0.013  -0.039  0.00  0.00    +0.015 A 
ATOM      9  C   UNL     1       1.687  -1.172  -0.012  0.00  0.00    +0.020 A 
ENDROOT
BRANCH   9  10
ATOM     10  C   UNL     1       2.267  -2.498   0.026  0.00  0.00    +0.055 C 
ATOM     11  N   UNL     1       3.556  -2.624   0.036  0.00  0.00    -0.187 NA
BRANCH  11  12
ATOM     12  N   UNL     1       4.004  -3.915   0.063  0.00  0.00    -0.203 N 
ATOM     13  C   UNL     1       5.359  -4.204   0.049  0.00  0.00    +0.267 C 
ATOM     14  O   UNL     1       6.254  -3.364   0.009  0.00  0.00    -0.268 OA
ATOM     15  H   UNL     1       3.353  -4.653   0.093  0.00  0.00    +0.000 HD
BRANCH  13  16
ATOM     16  C   UNL     1       5.713  -5.663   0.084  0.00  0.00    +0.080 A 
ATOM     17  C   UNL     1       7.078  -6.001   0.069  0.00  0.00    -0.043 A 
ATOM     18  C   UNL     1       7.489  -7.338   0.095  0.00  0.00    -0.019 A 
ATOM     19  C   UNL     1       6.531  -8.343   0.138  0.00  0.00    +0.120 A 
ATOM     20  C   UNL     1       5.176  -8.037   0.163  0.00  0.00    +0.022 A 
ATOM     21  C   UNL     1       4.766  -6.700   0.135  0.00  0.00    +0.132 A 
BRANCH  19  22
ATOM     22  O   UNL     1       6.877  -9.662   0.154  0.00  0.00    -0.507 OA
ATOM     23  H   UNL     1       7.780  -9.910   0.139  0.00  0.00    +0.000 HD
ENDBRANCH  19  22
BRANCH  21  24
ATOM     24  O   UNL     1       3.422  -6.428   0.154  0.00  0.00    -0.506 OA
ATOM     25  H   UNL     1       2.802  -7.130   0.188  0.00  0.00    +0.000 HD
ENDBRANCH  21  24
ENDBRANCH  13  16
ENDBRANCH  11  12
ENDBRANCH   9  10
BRANCH   7  26
ATOM     26  C   UNL     1       1.916   2.457   0.057  0.00  0.00    +0.048 C 
BRANCH  26  27
ATOM     27  C   UNL     1       2.185   3.099  -1.282  0.00  0.00    -0.028 A 
ATOM     28  C   UNL     1       1.177   3.819  -1.939  0.00  0.00    -0.055 A 
ATOM     29  C   UNL     1       1.372   4.286  -3.239  0.00  0.00    -0.043 A 
ATOM     30  C   UNL     1       2.585   4.055  -3.883  0.00  0.00    +0.041 A 
ATOM     31  C   UNL     1       3.624   3.410  -3.218  0.00  0.00    -0.043 A 
ATOM     32  C   UNL     1       3.426   2.935  -1.919  0.00  0.00    -0.055 A 
ATOM     33 CL   UNL     1       2.786   4.540  -5.522  0.00  0.00    -0.084 Cl
ENDBRANCH  26  27
ENDBRANCH   7  26
TORSDOF 7
