MODEL 1
REMARK VINA RESULT:    -8.727      0.000      0.000
REMARK INTER + INTRA:         -11.276
REMARK INTER:                 -10.767
REMARK INTRA:                  -0.509
REMARK UNBOUND:                -0.509
REMARK  Name = 10.sdf
REMARK  5 active torsions:
REMARK  status: ('A' for Active; 'I' for Inactive)
REMARK    1  A    between atoms: C_9  and  C_10
REMARK    2  A    between atoms: C_11  and  C_12
REMARK    3  A    between atoms: C_12  and  C_13
REMARK    4  A    between atoms: C_17  and  O_20
REMARK    5  A    between atoms: O_20  and  C_21
REMARK                            x       y       z     vdW  Elec       q    Type
REMARK                         _______ _______ _______ _____ _____    ______ ____
ROOT
ATOM      1  C   UNL     1      15.441  35.577  10.381  0.00  0.00    -0.049 C 
ATOM      2  C   UNL     1      14.162  35.230  10.616  0.00  0.00    -0.014 C 
ENDROOT
BRANCH   1  11
ATOM      3  C   UNL     1      14.128  39.526   8.162  0.00  0.00    -0.061 A 
ATOM      4  C   UNL     1      14.880  39.736   7.010  0.00  0.00    -0.060 A 
ATOM      5  C   UNL     1      15.882  38.840   6.641  0.00  0.00    -0.038 A 
ATOM      6  C   UNL     1      16.103  37.731   7.468  0.00  0.00    +0.047 A 
ATOM      7  C   UNL     1      15.368  37.482   8.631  0.00  0.00    +0.007 A 
ATOM      8  C   UNL     1      14.358  38.405   8.979  0.00  0.00    -0.052 A 
ATOM      9  N   UNL     1      17.017  36.717   7.335  0.00  0.00    -0.360 N 
ATOM     10  C   UNL     1      16.892  35.829   8.366  0.00  0.00    +0.010 A 
ATOM     11  C   UNL     1      15.877  36.262   9.195  0.00  0.00    +0.000 A 
ATOM     12  H   UNL     1      17.670  36.639   6.602  0.00  0.00    +0.000 HD
ENDBRANCH   1  11
BRANCH   2  13
ATOM     13  C   UNL     1      13.706  34.561  11.866  0.00  0.00    +0.186 C 
ATOM     14  O   UNL     1      14.470  34.282  12.781  0.00  0.00    -0.287 OA
BRANCH  13  15
ATOM     15  C   UNL     1      12.260  34.194  11.924  0.00  0.00    +0.022 A 
ATOM     16  C   UNL     1      11.344  34.863  11.105  0.00  0.00    -0.047 A 
ATOM     17  C   UNL     1       9.977  34.553  11.168  0.00  0.00    -0.019 A 
ATOM     18  C   UNL     1       9.518  33.566  12.042  0.00  0.00    +0.120 A 
ATOM     19  C   UNL     1      10.438  32.878  12.837  0.00  0.00    -0.019 A 
ATOM     20  C   UNL     1      11.800  33.182  12.778  0.00  0.00    -0.047 A 
BRANCH  18  21
ATOM     21  O   UNL     1       8.220  33.177  12.218  0.00  0.00    -0.495 OA
ATOM     22  C   UNL     1       7.544  33.677  13.365  0.00  0.00    +0.079 C 
ENDBRANCH  18  21
ENDBRANCH  13  15
ENDBRANCH   2  13
TORSDOF 4
ENDMDL
