MODEL 1
REMARK VINA RESULT:    -8.615      0.000      0.000
REMARK INTER + INTRA:         -12.799
REMARK INTER:                 -11.637
REMARK INTRA:                  -1.162
REMARK UNBOUND:                -1.162
REMARK  Name = 10a.sdf
REMARK  7 active torsions:
REMARK  status: ('A' for Active; 'I' for Inactive)
REMARK    1  A    between atoms: N_7  and  C_22
REMARK    2  A    between atoms: C_9  and  C_10
REMARK    3  A    between atoms: C_11  and  C_12
REMARK    4  A    between atoms: C_12  and  C_13
REMARK    5  A    between atoms: C_17  and  O_20
REMARK    6  A    between atoms: O_20  and  C_21
REMARK    7  A    between atoms: C_22  and  C_23
REMARK                            x       y       z     vdW  Elec       q    Type
REMARK                         _______ _______ _______ _____ _____    ______ ____
ROOT
ATOM      1  C   UNL     1      14.073  32.998  16.702  0.00  0.00    -0.061 A 
ATOM      2  C   UNL     1      13.000  32.120  16.781  0.00  0.00    -0.060 A 
ATOM      3  C   UNL     1      12.274  31.766  15.639  0.00  0.00    -0.038 A 
ATOM      4  C   UNL     1      12.661  32.315  14.404  0.00  0.00    +0.050 A 
ATOM      5  C   UNL     1      13.764  33.171  14.295  0.00  0.00    +0.007 A 
ATOM      6  C   UNL     1      14.467  33.523  15.468  0.00  0.00    -0.052 A 
ATOM      7  N   UNL     1      12.122  32.187  13.136  0.00  0.00    -0.342 N 
ATOM      8  C   UNL     1      12.895  32.875  12.229  0.00  0.00    +0.013 A 
ATOM      9  C   UNL     1      13.919  33.495  12.912  0.00  0.00    +0.000 A 
ENDROOT
BRANCH   9  10
ATOM     10  C   UNL     1      14.961  34.296  12.343  0.00  0.00    -0.049 C 
ATOM     11  C   UNL     1      15.630  34.009  11.219  0.00  0.00    -0.014 C 
BRANCH  11  12
ATOM     12  C   UNL     1      16.752  34.875  10.757  0.00  0.00    +0.186 C 
ATOM     13  O   UNL     1      17.864  34.849  11.257  0.00  0.00    -0.287 OA
BRANCH  12  14
ATOM     14  C   UNL     1      16.426  35.822   9.642  0.00  0.00    +0.022 A 
ATOM     15  C   UNL     1      17.182  35.775   8.471  0.00  0.00    -0.047 A 
ATOM     16  C   UNL     1      16.934  36.697   7.449  0.00  0.00    -0.019 A 
ATOM     17  C   UNL     1      15.925  37.653   7.578  0.00  0.00    +0.120 A 
ATOM     18  C   UNL     1      15.141  37.675   8.735  0.00  0.00    -0.019 A 
ATOM     19  C   UNL     1      15.391  36.760   9.762  0.00  0.00    -0.047 A 
BRANCH  17  20
ATOM     20  O   UNL     1      15.823  38.536   6.542  0.00  0.00    -0.495 OA
ATOM     21  C   UNL     1      14.973  39.660   6.741  0.00  0.00    +0.079 C 
ENDBRANCH  17  20
ENDBRANCH  12  14
ENDBRANCH  11  12
ENDBRANCH   9  10
BRANCH   7  22
ATOM     22  C   UNL     1      10.864  31.525  12.796  0.00  0.00    +0.048 C 
BRANCH  22  23
ATOM     23  C   UNL     1       9.669  32.395  13.103  0.00  0.00    -0.028 A 
ATOM     24  C   UNL     1       9.370  33.504  12.300  0.00  0.00    -0.056 A 
ATOM     25  C   UNL     1       8.329  34.370  12.640  0.00  0.00    -0.047 A 
ATOM     26  C   UNL     1       7.572  34.124  13.783  0.00  0.00    +0.018 A 
ATOM     27  C   UNL     1       7.820  32.998  14.565  0.00  0.00    -0.047 A 
ATOM     28  C   UNL     1       8.864  32.135  14.225  0.00  0.00    -0.056 A 
ATOM     29 BR   UNL     1       6.220  35.342  14.292  0.00  0.00    -0.050 Br
ENDBRANCH  22  23
ENDBRANCH   7  22
TORSDOF 6
ENDMDL
