MODEL 1
REMARK VINA RESULT:    -7.822      0.000      0.000
REMARK INTER + INTRA:          -9.971
REMARK INTER:                  -9.651
REMARK INTRA:                  -0.319
REMARK UNBOUND:                -0.319
REMARK  Name = 16.sdf
REMARK  4 active torsions:
REMARK  status: ('A' for Active; 'I' for Inactive)
REMARK    1  A    between atoms: C_9  and  C_10
REMARK    2  A    between atoms: C_10  and  O_11
REMARK    3  A    between atoms: O_11  and  C_12
REMARK    4  A    between atoms: C_12  and  C_13
REMARK                            x       y       z     vdW  Elec       q    Type
REMARK                         _______ _______ _______ _____ _____    ______ ____
ROOT
ATOM      1  C   UNL     1      13.847  39.173   8.713  0.00  0.00    -0.061 A 
ATOM      2  C   UNL     1      14.286  39.884   7.599  0.00  0.00    -0.060 A 
ATOM      3  C   UNL     1      15.383  39.444   6.854  0.00  0.00    -0.038 A 
ATOM      4  C   UNL     1      16.019  38.268   7.267  0.00  0.00    +0.047 A 
ATOM      5  C   UNL     1      15.604  37.527   8.375  0.00  0.00    +0.005 A 
ATOM      6  C   UNL     1      14.494  37.997   9.111  0.00  0.00    -0.052 A 
ATOM      7  N   UNL     1      17.105  37.618   6.729  0.00  0.00    -0.360 N 
ATOM      8  C   UNL     1      17.393  36.499   7.459  0.00  0.00    +0.008 A 
ATOM      9  C   UNL     1      16.476  36.393   8.488  0.00  0.00    +0.003 A 
ATOM     10  H   UNL     1      17.603  37.916   5.934  0.00  0.00    +0.000 HD
ENDROOT
BRANCH   9  11
ATOM     11  C   UNL     1      16.421  35.312   9.521  0.00  0.00    +0.075 C 
BRANCH  11  12
ATOM     12  O   UNL     1      15.575  35.685  10.613  0.00  0.00    -0.371 OA
BRANCH  12  13
ATOM     13  C   UNL     1      15.000  34.553  11.259  0.00  0.00    +0.073 C 
BRANCH  13  14
ATOM     14  C   UNL     1      13.491  34.635  11.205  0.00  0.00    -0.022 A 
ATOM     15  C   UNL     1      12.853  35.107  10.049  0.00  0.00    -0.055 A 
ATOM     16  C   UNL     1      11.458  35.166   9.978  0.00  0.00    -0.043 A 
ATOM     17  C   UNL     1      10.691  34.739  11.060  0.00  0.00    +0.041 A 
ATOM     18  C   UNL     1      11.305  34.248  12.208  0.00  0.00    -0.043 A 
ATOM     19  C   UNL     1      12.699  34.191  12.277  0.00  0.00    -0.055 A 
ATOM     20 CL   UNL     1       8.973  34.816  10.974  0.00  0.00    -0.084 Cl
ENDBRANCH  13  14
ENDBRANCH  12  13
ENDBRANCH  11  12
ENDBRANCH   9  11
TORSDOF 4
ENDMDL
