MODEL 1
REMARK VINA RESULT:    -7.521      0.000      0.000
REMARK INTER + INTRA:          -8.632
REMARK INTER:                  -8.400
REMARK INTRA:                  -0.232
REMARK UNBOUND:                -0.232
REMARK  Name = 17e.sdf
REMARK  3 active torsions:
REMARK  status: ('A' for Active; 'I' for Inactive)
REMARK    1  A    between atoms: C_9  and  C_10
REMARK    2  A    between atoms: N_11  and  N_12
REMARK    3  A    between atoms: C_16  and  C_17
REMARK                            x       y       z     vdW  Elec       q    Type
REMARK                         _______ _______ _______ _____ _____    ______ ____
ROOT
ATOM      1  C   UNL     1      14.142  39.750   7.862  0.00  0.00    -0.061 A 
ATOM      2  C   UNL     1      15.288  39.743   7.082  0.00  0.00    -0.060 A 
ATOM      3  C   UNL     1      16.175  38.664   7.125  0.00  0.00    -0.037 A 
ATOM      4  C   UNL     1      15.890  37.575   7.975  0.00  0.00    +0.057 A 
ATOM      5  C   UNL     1      14.734  37.568   8.769  0.00  0.00    +0.009 A 
ATOM      6  C   UNL     1      13.854  38.673   8.705  0.00  0.00    -0.052 A 
ATOM      7  N   UNL     1      16.595  36.384   8.210  0.00  0.00    -0.287 N 
ATOM      8  C   UNL     1      15.867  35.665   9.140  0.00  0.00    +0.022 A 
ATOM      9  C   UNL     1      14.726  36.352   9.504  0.00  0.00    +0.020 A 
ATOM     10  C   UNL     1      17.818  36.011   7.599  0.00  0.00    +0.229 C 
ATOM     11  C   UNL     1      18.427  34.692   7.974  0.00  0.00    +0.015 C 
ATOM     12  O   UNL     1      18.354  36.761   6.786  0.00  0.00    -0.273 OA
ENDROOT
BRANCH   9  13
ATOM     13  C   UNL     1      13.742  35.879  10.459  0.00  0.00    +0.055 C 
ATOM     14  N   UNL     1      12.552  35.620  10.018  0.00  0.00    -0.186 NA
BRANCH  14  15
ATOM     15  N   UNL     1      11.645  35.176  10.939  0.00  0.00    -0.191 N 
ATOM     16  C   UNL     1      10.321  35.011  10.611  0.00  0.00    +0.317 C 
ATOM     17  O   UNL     1       9.478  34.614  11.404  0.00  0.00    -0.251 OA
ATOM     18  N   UNL     1      10.022  35.325   9.326  0.00  0.00    -0.312 N 
ATOM     19  H   UNL     1      11.945  34.972  11.854  0.00  0.00    +0.000 HD
ATOM     20  H   UNL     1      10.730  35.641   8.719  0.00  0.00    +0.000 HD
ATOM     21  H   UNL     1       9.098  35.236   9.000  0.00  0.00    +0.000 HD
ENDBRANCH  14  15
ENDBRANCH   9  13
TORSDOF 2
ENDMDL
