MODEL 1
REMARK VINA RESULT:    -8.077      0.000      0.000
REMARK INTER + INTRA:          -9.439
REMARK INTER:                  -9.494
REMARK INTRA:                   0.054
REMARK UNBOUND:                 0.054
REMARK  Name = 1a.sdf
REMARK  3 active torsions:
REMARK  status: ('A' for Active; 'I' for Inactive)
REMARK    1  A    between atoms: N_7  and  C_12
REMARK    2  A    between atoms: C_9  and  C_10
REMARK    3  A    between atoms: C_12  and  C_13
REMARK                            x       y       z     vdW  Elec       q    Type
REMARK                         _______ _______ _______ _____ _____    ______ ____
ROOT
ATOM      1  C   UNL     1      18.213  37.124   6.463  0.00  0.00    -0.061 A 
ATOM      2  C   UNL     1      18.292  35.915   7.144  0.00  0.00    -0.060 A 
ATOM      3  C   UNL     1      17.364  35.588   8.138  0.00  0.00    -0.038 A 
ATOM      4  C   UNL     1      16.341  36.507   8.426  0.00  0.00    +0.050 A 
ATOM      5  C   UNL     1      16.217  37.712   7.722  0.00  0.00    +0.010 A 
ATOM      6  C   UNL     1      17.179  38.024   6.736  0.00  0.00    -0.052 A 
ATOM      7  N   UNL     1      15.326  36.482   9.366  0.00  0.00    -0.342 N 
ATOM      8  C   UNL     1      14.534  37.595   9.223  0.00  0.00    +0.016 A 
ATOM      9  C   UNL     1      15.055  38.381   8.217  0.00  0.00    +0.039 A 
ENDROOT
BRANCH   9  10
ATOM     10  C   UNL     1      14.501  39.646   7.774  0.00  0.00    +0.152 C 
ATOM     11  O   UNL     1      14.487  40.021   6.605  0.00  0.00    -0.296 OA
ENDBRANCH   9  10
BRANCH   7  12
ATOM     12  C   UNL     1      15.162  35.504  10.440  0.00  0.00    +0.048 C 
BRANCH  12  13
ATOM     13  C   UNL     1      13.714  35.144  10.653  0.00  0.00    -0.028 A 
ATOM     14  C   UNL     1      12.800  35.213   9.590  0.00  0.00    -0.056 A 
ATOM     15  C   UNL     1      11.441  34.983   9.807  0.00  0.00    -0.047 A 
ATOM     16  C   UNL     1      10.988  34.670  11.086  0.00  0.00    +0.018 A 
ATOM     17  C   UNL     1      11.886  34.547  12.143  0.00  0.00    -0.047 A 
ATOM     18  C   UNL     1      13.247  34.782  11.925  0.00  0.00    -0.056 A 
ATOM     19 BR   UNL     1       9.137  34.444  11.395  0.00  0.00    -0.050 Br
ENDBRANCH  12  13
ENDBRANCH   7  12
TORSDOF 3
ENDMDL
