MODEL 1
REMARK VINA RESULT:    -7.109      0.000      0.000
REMARK INTER + INTRA:          -8.666
REMARK INTER:                  -8.355
REMARK INTRA:                  -0.311
REMARK UNBOUND:                -0.311
REMARK  Name = 1b.sdf
REMARK  3 active torsions:
REMARK  status: ('A' for Active; 'I' for Inactive)
REMARK    1  A    between atoms: N_7  and  C_12
REMARK    2  A    between atoms: C_9  and  C_10
REMARK    3  A    between atoms: C_12  and  C_13
REMARK                            x       y       z     vdW  Elec       q    Type
REMARK                         _______ _______ _______ _____ _____    ______ ____
ROOT
ATOM      1  C   UNL     1      17.854  36.902   6.847  0.00  0.00    -0.061 A 
ATOM      2  C   UNL     1      17.803  35.712   7.563  0.00  0.00    -0.060 A 
ATOM      3  C   UNL     1      16.785  35.475   8.492  0.00  0.00    -0.038 A 
ATOM      4  C   UNL     1      15.809  36.468   8.682  0.00  0.00    +0.050 A 
ATOM      5  C   UNL     1      15.819  37.657   7.940  0.00  0.00    +0.010 A 
ATOM      6  C   UNL     1      16.866  37.874   7.020  0.00  0.00    -0.052 A 
ATOM      7  N   UNL     1      14.732  36.543   9.548  0.00  0.00    -0.342 N 
ATOM      8  C   UNL     1      14.033  37.701   9.322  0.00  0.00    +0.016 A 
ATOM      9  C   UNL     1      14.676  38.419   8.333  0.00  0.00    +0.039 A 
ENDROOT
BRANCH   9  10
ATOM     10  C   UNL     1      14.248  39.706   7.824  0.00  0.00    +0.152 C 
ATOM     11  O   UNL     1      14.368  40.054   6.652  0.00  0.00    -0.296 OA
ENDBRANCH   9  10
BRANCH   7  12
ATOM     12  C   UNL     1      14.433  35.619  10.640  0.00  0.00    +0.048 C 
BRANCH  12  13
ATOM     13  C   UNL     1      13.020  35.108  10.580  0.00  0.00    -0.025 A 
ATOM     14  C   UNL     1      12.269  34.938  11.748  0.00  0.00    -0.039 A 
ATOM     15  C   UNL     1      10.987  34.423  11.648  0.00  0.00    +0.028 A 
ATOM     16  N   UNL     1      10.402  34.084  10.481  0.00  0.00    -0.263 NA
ATOM     17  C   UNL     1      11.135  34.266   9.362  0.00  0.00    +0.028 A 
ATOM     18  C   UNL     1      12.426  34.770   9.359  0.00  0.00    -0.039 A 
ENDBRANCH  12  13
ENDBRANCH   7  12
TORSDOF 3
ENDMDL
