MODEL 1
REMARK VINA RESULT:    -8.704      0.000      0.000
REMARK INTER + INTRA:          -9.794
REMARK INTER:                  -9.722
REMARK INTRA:                  -0.072
REMARK UNBOUND:                -0.072
REMARK  Name = 1d.sdf
REMARK  2 active torsions:
REMARK  status: ('A' for Active; 'I' for Inactive)
REMARK    1  A    between atoms: C_9  and  C_10
REMARK    2  A    between atoms: C_12  and  C_13
REMARK                            x       y       z     vdW  Elec       q    Type
REMARK                         _______ _______ _______ _____ _____    ______ ____
ROOT
ATOM      1  C   UNL     1      12.793  33.227  13.414  0.00  0.00    -0.061 A 
ATOM      2  C   UNL     1      14.128  33.599  13.323  0.00  0.00    -0.060 A 
ATOM      3  C   UNL     1      14.586  34.375  12.253  0.00  0.00    -0.037 A 
ATOM      4  C   UNL     1      13.664  34.774  11.267  0.00  0.00    +0.057 A 
ATOM      5  C   UNL     1      12.312  34.413  11.345  0.00  0.00    +0.011 A 
ATOM      6  C   UNL     1      11.878  33.625  12.435  0.00  0.00    -0.052 A 
ATOM      7  N   UNL     1      13.826  35.587  10.142  0.00  0.00    -0.282 N 
ATOM      8  C   UNL     1      12.603  35.663   9.501  0.00  0.00    +0.024 A 
ATOM      9  C   UNL     1      11.648  34.978  10.221  0.00  0.00    +0.040 A 
ATOM     10  C   UNL     1      15.008  36.246   9.719  0.00  0.00    +0.263 C 
ATOM     11  O   UNL     1      16.091  35.807  10.098  0.00  0.00    -0.267 OA
ENDROOT
BRANCH  10  12
ATOM     12  C   UNL     1      14.991  37.445   8.842  0.00  0.00    +0.040 A 
ATOM     13  C   UNL     1      14.107  38.499   9.114  0.00  0.00    -0.049 A 
ATOM     14  C   UNL     1      14.048  39.597   8.258  0.00  0.00    -0.061 A 
ATOM     15  C   UNL     1      14.893  39.662   7.151  0.00  0.00    -0.062 A 
ATOM     16  C   UNL     1      15.816  38.642   6.912  0.00  0.00    -0.061 A 
ATOM     17  C   UNL     1      15.873  37.533   7.760  0.00  0.00    -0.049 A 
ENDBRANCH  10  12
BRANCH   9  18
ATOM     18  C   UNL     1      10.247  34.882   9.855  0.00  0.00    +0.152 C 
ATOM     19  O   UNL     1       9.325  35.134  10.629  0.00  0.00    -0.296 OA
ENDBRANCH   9  18
TORSDOF 2
ENDMDL
