MODEL 1
REMARK VINA RESULT:    -7.537      0.000      0.000
REMARK INTER + INTRA:         -11.652
REMARK INTER:                 -10.621
REMARK INTRA:                  -1.031
REMARK UNBOUND:                -1.031
REMARK  Name = 23a.sdf
REMARK  9 active torsions:
REMARK  status: ('A' for Active; 'I' for Inactive)
REMARK    1  A    between atoms: N_7  and  C_12
REMARK    2  A    between atoms: C_9  and  C_10
REMARK    3  A    between atoms: N_11  and  N_19
REMARK    4  A    between atoms: C_12  and  C_13
REMARK    5  A    between atoms: C_20  and  C_22
REMARK    6  A    between atoms: C_24  and  O_30
REMARK    7  A    between atoms: C_25  and  O_29
REMARK    8  A    between atoms: O_29  and  C_32
REMARK    9  A    between atoms: O_30  and  C_31
REMARK                            x       y       z     vdW  Elec       q    Type
REMARK                         _______ _______ _______ _____ _____    ______ ____
ROOT
ATOM      1  C   UNL     1      11.425  35.661   9.919  0.00  0.00    -0.061 A 
ATOM      2  C   UNL     1      12.725  35.200  10.041  0.00  0.00    -0.060 A 
ATOM      3  C   UNL     1      13.025  34.132  10.897  0.00  0.00    -0.038 A 
ATOM      4  C   UNL     1      12.020  33.603  11.731  0.00  0.00    +0.050 A 
ATOM      5  C   UNL     1      10.688  34.030  11.587  0.00  0.00    +0.009 A 
ATOM      6  C   UNL     1      10.397  35.055  10.648  0.00  0.00    -0.052 A 
ATOM      7  N   UNL     1      12.048  32.660  12.752  0.00  0.00    -0.342 N 
ATOM      8  C   UNL     1      10.755  32.439  13.182  0.00  0.00    +0.015 A 
ATOM      9  C   UNL     1       9.880  33.238  12.468  0.00  0.00    +0.020 A 
ENDROOT
BRANCH   9  10
ATOM     10  C   UNL     1       8.432  33.262  12.583  0.00  0.00    +0.055 C 
ATOM     11  N   UNL     1       7.840  34.249  13.192  0.00  0.00    -0.187 NA
BRANCH  11  12
ATOM     12  N   UNL     1       6.472  34.195  13.281  0.00  0.00    -0.203 N 
ATOM     13  C   UNL     1       5.792  35.201  13.948  0.00  0.00    +0.263 C 
ATOM     14  O   UNL     1       6.330  36.179  14.490  0.00  0.00    -0.268 OA
ATOM     15  H   UNL     1       5.979  33.448  12.875  0.00  0.00    +0.000 HD
BRANCH  13  16
ATOM     16  C   UNL     1       4.306  35.112  13.972  0.00  0.00    +0.042 A 
ATOM     17  C   UNL     1       3.633  33.924  13.666  0.00  0.00    -0.004 A 
ATOM     18  C   UNL     1       2.231  33.898  13.616  0.00  0.00    +0.162 A 
ATOM     19  C   UNL     1       1.492  35.060  13.932  0.00  0.00    +0.162 A 
ATOM     20  C   UNL     1       2.170  36.217  14.322  0.00  0.00    -0.016 A 
ATOM     21  C   UNL     1       3.567  36.247  14.327  0.00  0.00    -0.046 A 
BRANCH  19  22
ATOM     22  O   UNL     1       0.125  34.964  13.829  0.00  0.00    -0.491 OA
ATOM     23  C   UNL     1      -0.637  35.059  15.027  0.00  0.00    +0.079 C 
ENDBRANCH  19  22
BRANCH  18  24
ATOM     24  O   UNL     1       1.500  32.787  13.267  0.00  0.00    -0.491 OA
ATOM     25  C   UNL     1       1.824  31.560  13.907  0.00  0.00    +0.079 C 
ENDBRANCH  18  24
ENDBRANCH  13  16
ENDBRANCH  11  12
ENDBRANCH   9  10
BRANCH   7  26
ATOM     26  C   UNL     1      13.216  32.069  13.438  0.00  0.00    +0.048 C 
BRANCH  26  27
ATOM     27  C   UNL     1      13.807  32.949  14.520  0.00  0.00    -0.028 A 
ATOM     28  C   UNL     1      13.675  32.597  15.873  0.00  0.00    -0.056 A 
ATOM     29  C   UNL     1      13.923  33.538  16.876  0.00  0.00    -0.047 A 
ATOM     30  C   UNL     1      14.392  34.805  16.536  0.00  0.00    +0.018 A 
ATOM     31  C   UNL     1      14.689  35.113  15.210  0.00  0.00    -0.047 A 
ATOM     32  C   UNL     1      14.392  34.190  14.203  0.00  0.00    -0.056 A 
ATOM     33 BR   UNL     1      14.507  36.152  17.858  0.00  0.00    -0.050 Br
ENDBRANCH  26  27
ENDBRANCH   7  26
TORSDOF 7
ENDMDL
