MODEL 1
REMARK VINA RESULT:    -9.039      0.000      0.000
REMARK INTER + INTRA:         -12.585
REMARK INTER:                 -11.946
REMARK INTRA:                  -0.640
REMARK UNBOUND:                -0.640
REMARK  Name = 24a.sdf
REMARK  6 active torsions:
REMARK  status: ('A' for Active; 'I' for Inactive)
REMARK    1  A    between atoms: N_7  and  C_10
REMARK    2  A    between atoms: C_9  and  C_18
REMARK    3  A    between atoms: C_10  and  C_11
REMARK    4  A    between atoms: N_19  and  N_20
REMARK    5  A    between atoms: C_21  and  C_23
REMARK    6  A    between atoms: C_26  and  O_29
REMARK                            x       y       z     vdW  Elec       q    Type
REMARK                         _______ _______ _______ _____ _____    ______ ____
ROOT
ATOM      1  C   UNL     1      11.455  31.624  13.711  0.00  0.00    -0.061 A 
ATOM      2  C   UNL     1      10.272  31.159  14.264  0.00  0.00    -0.060 A 
ATOM      3  C   UNL     1       9.045  31.789  13.996  0.00  0.00    -0.038 A 
ATOM      4  C   UNL     1       9.044  32.943  13.177  0.00  0.00    +0.050 A 
ATOM      5  C   UNL     1      10.224  33.385  12.561  0.00  0.00    +0.009 A 
ATOM      6  C   UNL     1      11.439  32.713  12.838  0.00  0.00    -0.052 A 
ATOM      7  N   UNL     1       8.040  33.830  12.827  0.00  0.00    -0.342 N 
ATOM      8  C   UNL     1       8.545  34.746  11.929  0.00  0.00    +0.015 A 
ATOM      9  C   UNL     1       9.886  34.490  11.719  0.00  0.00    +0.020 A 
ENDROOT
BRANCH   9  10
ATOM     10  C   UNL     1      10.764  35.210  10.817  0.00  0.00    +0.055 C 
ATOM     11  N   UNL     1      12.045  35.184  10.997  0.00  0.00    -0.187 NA
BRANCH  11  12
ATOM     12  N   UNL     1      12.792  35.913  10.112  0.00  0.00    -0.203 N 
ATOM     13  C   UNL     1      14.178  35.813  10.136  0.00  0.00    +0.263 C 
ATOM     14  O   UNL     1      14.817  35.092  10.905  0.00  0.00    -0.268 OA
ATOM     15  H   UNL     1      12.350  36.505   9.462  0.00  0.00    +0.000 HD
BRANCH  13  16
ATOM     16  C   UNL     1      14.923  36.615   9.125  0.00  0.00    +0.039 A 
ATOM     17  C   UNL     1      14.581  37.939   8.813  0.00  0.00    -0.046 A 
ATOM     18  C   UNL     1      15.296  38.640   7.835  0.00  0.00    -0.019 A 
ATOM     19  C   UNL     1      16.357  38.018   7.181  0.00  0.00    +0.117 A 
ATOM     20  C   UNL     1      16.736  36.723   7.508  0.00  0.00    -0.019 A 
ATOM     21  C   UNL     1      16.020  36.022   8.482  0.00  0.00    -0.046 A 
BRANCH  19  22
ATOM     22  O   UNL     1      17.060  38.655   6.203  0.00  0.00    -0.507 OA
ATOM     23  H   UNL     1      17.597  39.393   6.417  0.00  0.00    +0.000 HD
ENDBRANCH  19  22
ENDBRANCH  13  16
ENDBRANCH  11  12
ENDBRANCH   9  10
BRANCH   7  24
ATOM     24  C   UNL     1       6.688  33.930  13.387  0.00  0.00    +0.048 C 
BRANCH  24  25
ATOM     25  C   UNL     1       6.632  34.794  14.625  0.00  0.00    -0.028 A 
ATOM     26  C   UNL     1       7.071  34.294  15.860  0.00  0.00    -0.056 A 
ATOM     27  C   UNL     1       6.820  34.997  17.039  0.00  0.00    -0.047 A 
ATOM     28  C   UNL     1       6.166  36.226  16.986  0.00  0.00    +0.018 A 
ATOM     29  C   UNL     1       5.837  36.796  15.759  0.00  0.00    -0.047 A 
ATOM     30  C   UNL     1       6.073  36.083  14.581  0.00  0.00    -0.056 A 
ATOM     31 BR   UNL     1       5.645  37.079  18.590  0.00  0.00    -0.050 Br
ENDBRANCH  24  25
ENDBRANCH   7  24
TORSDOF 6
ENDMDL
