MODEL 1
REMARK VINA RESULT:    -7.799      0.000      0.000
REMARK INTER + INTRA:         -11.225
REMARK INTER:                 -10.307
REMARK INTRA:                  -0.918
REMARK UNBOUND:                -0.918
REMARK  Name = 24c.sdf
REMARK  6 active torsions:
REMARK  status: ('A' for Active; 'I' for Inactive)
REMARK    1  A    between atoms: N_7  and  C_10
REMARK    2  A    between atoms: C_9  and  C_18
REMARK    3  A    between atoms: C_10  and  C_11
REMARK    4  A    between atoms: N_19  and  N_20
REMARK    5  A    between atoms: C_21  and  C_23
REMARK    6  A    between atoms: C_26  and  O_29
REMARK                            x       y       z     vdW  Elec       q    Type
REMARK                         _______ _______ _______ _____ _____    ______ ____
ROOT
ATOM      1  C   UNL     1      11.389  35.640   9.815  0.00  0.00    -0.061 A 
ATOM      2  C   UNL     1      12.692  35.178   9.955  0.00  0.00    -0.060 A 
ATOM      3  C   UNL     1      13.007  34.188  10.890  0.00  0.00    -0.038 A 
ATOM      4  C   UNL     1      11.971  33.663  11.683  0.00  0.00    +0.050 A 
ATOM      5  C   UNL     1      10.644  34.079  11.526  0.00  0.00    +0.009 A 
ATOM      6  C   UNL     1      10.359  35.093  10.586  0.00  0.00    -0.052 A 
ATOM      7  N   UNL     1      11.981  32.728  12.704  0.00  0.00    -0.342 N 
ATOM      8  C   UNL     1      10.699  32.493  13.130  0.00  0.00    +0.015 A 
ATOM      9  C   UNL     1       9.837  33.305  12.418  0.00  0.00    +0.020 A 
ENDROOT
BRANCH   9  10
ATOM     10  C   UNL     1       8.394  33.348  12.558  0.00  0.00    +0.055 C 
ATOM     11  N   UNL     1       7.833  34.362  13.130  0.00  0.00    -0.187 NA
BRANCH  11  12
ATOM     12  N   UNL     1       6.469  34.315  13.223  0.00  0.00    -0.203 N 
ATOM     13  C   UNL     1       5.795  35.324  13.892  0.00  0.00    +0.263 C 
ATOM     14  O   UNL     1       6.318  36.299  14.422  0.00  0.00    -0.268 OA
ATOM     15  H   UNL     1       5.970  33.569  12.818  0.00  0.00    +0.000 HD
BRANCH  13  16
ATOM     16  C   UNL     1       4.307  35.200  13.920  0.00  0.00    +0.039 A 
ATOM     17  C   UNL     1       3.642  34.021  13.544  0.00  0.00    -0.046 A 
ATOM     18  C   UNL     1       2.243  33.963  13.576  0.00  0.00    -0.019 A 
ATOM     19  C   UNL     1       1.519  35.076  13.994  0.00  0.00    +0.117 A 
ATOM     20  C   UNL     1       2.165  36.237  14.397  0.00  0.00    -0.019 A 
ATOM     21  C   UNL     1       3.560  36.299  14.364  0.00  0.00    -0.046 A 
BRANCH  19  22
ATOM     22  O   UNL     1       0.156  35.065  14.030  0.00  0.00    -0.507 OA
ATOM     23  H   UNL     1      -0.307  35.771  14.436  0.00  0.00    +0.000 HD
ENDBRANCH  19  22
ENDBRANCH  13  16
ENDBRANCH  11  12
ENDBRANCH   9  10
BRANCH   7  24
ATOM     24  C   UNL     1      13.165  32.142  13.330  0.00  0.00    +0.048 C 
BRANCH  24  25
ATOM     25  C   UNL     1      13.628  32.952  14.515  0.00  0.00    -0.028 A 
ATOM     26  C   UNL     1      13.471  32.462  15.820  0.00  0.00    -0.055 A 
ATOM     27  C   UNL     1      13.803  33.254  16.921  0.00  0.00    -0.043 A 
ATOM     28  C   UNL     1      14.306  34.538  16.724  0.00  0.00    +0.041 A 
ATOM     29  C   UNL     1      14.515  35.022  15.435  0.00  0.00    -0.043 A 
ATOM     30  C   UNL     1      14.179  34.231  14.334  0.00  0.00    -0.055 A 
ATOM     31 CL   UNL     1      14.648  35.538  18.081  0.00  0.00    -0.084 Cl
ENDBRANCH  24  25
ENDBRANCH   7  24
TORSDOF 6
ENDMDL
