MODEL 1
REMARK VINA RESULT:    -8.959      0.000      0.000
REMARK INTER + INTRA:         -12.759
REMARK INTER:                 -12.102
REMARK INTRA:                  -0.657
REMARK UNBOUND:                -0.657
REMARK  Name = 25c.sdf
REMARK  7 active torsions:
REMARK  status: ('A' for Active; 'I' for Inactive)
REMARK    1  A    between atoms: N_7  and  C_10
REMARK    2  A    between atoms: C_9  and  C_18
REMARK    3  A    between atoms: C_10  and  C_11
REMARK    4  A    between atoms: N_19  and  N_20
REMARK    5  A    between atoms: C_21  and  C_23
REMARK    6  A    between atoms: C_25  and  O_29
REMARK    7  A    between atoms: C_27  and  O_30
REMARK                            x       y       z     vdW  Elec       q    Type
REMARK                         _______ _______ _______ _____ _____    ______ ____
ROOT
ATOM      1  C   UNL     1      11.637  31.736  13.898  0.00  0.00    -0.061 A 
ATOM      2  C   UNL     1      10.504  31.110  14.407  0.00  0.00    -0.060 A 
ATOM      3  C   UNL     1       9.220  31.600  14.130  0.00  0.00    -0.038 A 
ATOM      4  C   UNL     1       9.096  32.762  13.347  0.00  0.00    +0.050 A 
ATOM      5  C   UNL     1      10.227  33.368  12.771  0.00  0.00    +0.009 A 
ATOM      6  C   UNL     1      11.508  32.844  13.060  0.00  0.00    -0.052 A 
ATOM      7  N   UNL     1       8.001  33.533  12.988  0.00  0.00    -0.342 N 
ATOM      8  C   UNL     1       8.406  34.532  12.134  0.00  0.00    +0.015 A 
ATOM      9  C   UNL     1       9.774  34.448  11.954  0.00  0.00    +0.020 A 
ENDROOT
BRANCH   9  10
ATOM     10  C   UNL     1      10.575  35.305  11.103  0.00  0.00    +0.055 C 
ATOM     11  N   UNL     1      11.790  34.971  10.812  0.00  0.00    -0.187 NA
BRANCH  11  12
ATOM     12  N   UNL     1      12.489  35.837  10.008  0.00  0.00    -0.203 N 
ATOM     13  C   UNL     1      13.876  35.916  10.120  0.00  0.00    +0.263 C 
ATOM     14  O   UNL     1      14.567  35.282  10.914  0.00  0.00    -0.268 OA
ATOM     15  H   UNL     1      12.013  36.401   9.357  0.00  0.00    +0.000 HD
BRANCH  13  16
ATOM     16  C   UNL     1      14.557  36.864   9.191  0.00  0.00    +0.045 A 
ATOM     17  C   UNL     1      15.679  36.447   8.455  0.00  0.00    -0.008 A 
ATOM     18  C   UNL     1      16.272  37.329   7.550  0.00  0.00    +0.121 A 
ATOM     19  C   UNL     1      15.771  38.612   7.366  0.00  0.00    +0.021 A 
ATOM     20  C   UNL     1      14.658  39.017   8.088  0.00  0.00    +0.121 A 
ATOM     21  C   UNL     1      14.047  38.151   8.990  0.00  0.00    -0.008 A 
BRANCH  18  22
ATOM     22  O   UNL     1      17.358  36.973   6.803  0.00  0.00    -0.507 OA
ATOM     23  H   UNL     1      18.210  37.285   7.036  0.00  0.00    +0.000 HD
ENDBRANCH  18  22
BRANCH  20  24
ATOM     24  O   UNL     1      14.105  40.247   7.952  0.00  0.00    -0.507 OA
ATOM     25  H   UNL     1      14.334  40.784   7.220  0.00  0.00    +0.000 HD
ENDBRANCH  20  24
ENDBRANCH  13  16
ENDBRANCH  11  12
ENDBRANCH   9  10
BRANCH   7  26
ATOM     26  C   UNL     1       6.636  33.451  13.526  0.00  0.00    +0.048 C 
BRANCH  26  27
ATOM     27  C   UNL     1       6.375  34.490  14.589  0.00  0.00    -0.028 A 
ATOM     28  C   UNL     1       5.644  35.647  14.282  0.00  0.00    -0.055 A 
ATOM     29  C   UNL     1       5.585  36.710  15.185  0.00  0.00    -0.043 A 
ATOM     30  C   UNL     1       6.220  36.606  16.420  0.00  0.00    +0.041 A 
ATOM     31  C   UNL     1       6.847  35.419  16.788  0.00  0.00    -0.043 A 
ATOM     32  C   UNL     1       6.923  34.361  15.876  0.00  0.00    -0.055 A 
ATOM     33 CL   UNL     1       6.281  37.970  17.466  0.00  0.00    -0.084 Cl
ENDBRANCH  26  27
ENDBRANCH   7  26
TORSDOF 7
ENDMDL
