MODEL 1
REMARK VINA RESULT:    -7.827      0.000      0.000
REMARK INTER + INTRA:         -11.698
REMARK INTER:                 -10.573
REMARK INTRA:                  -1.125
REMARK UNBOUND:                -1.125
REMARK  Name = 26c.sdf
REMARK  7 active torsions:
REMARK  status: ('A' for Active; 'I' for Inactive)
REMARK    1  A    between atoms: N_7  and  C_10
REMARK    2  A    between atoms: C_9  and  C_18
REMARK    3  A    between atoms: C_10  and  C_11
REMARK    4  A    between atoms: N_19  and  N_20
REMARK    5  A    between atoms: C_21  and  C_23
REMARK    6  A    between atoms: C_26  and  O_29
REMARK    7  A    between atoms: C_28  and  O_30
REMARK                            x       y       z     vdW  Elec       q    Type
REMARK                         _______ _______ _______ _____ _____    ______ ____
ROOT
ATOM      1  C   UNL     1      10.613  35.472   9.596  0.00  0.00    -0.061 A 
ATOM      2  C   UNL     1      11.943  35.074   9.529  0.00  0.00    -0.060 A 
ATOM      3  C   UNL     1      12.453  34.113  10.409  0.00  0.00    -0.038 A 
ATOM      4  C   UNL     1      11.589  33.557  11.369  0.00  0.00    +0.050 A 
ATOM      5  C   UNL     1      10.231  33.903  11.416  0.00  0.00    +0.009 A 
ATOM      6  C   UNL     1       9.747  34.885  10.522  0.00  0.00    -0.052 A 
ATOM      7  N   UNL     1      11.811  32.659  12.397  0.00  0.00    -0.342 N 
ATOM      8  C   UNL     1      10.624  32.362  13.016  0.00  0.00    +0.015 A 
ATOM      9  C   UNL     1       9.619  33.108  12.434  0.00  0.00    +0.020 A 
ENDROOT
BRANCH   9  10
ATOM     10  C   UNL     1       8.220  33.068  12.804  0.00  0.00    +0.055 C 
ATOM     11  N   UNL     1       7.634  34.161  13.179  0.00  0.00    -0.187 NA
BRANCH  11  12
ATOM     12  N   UNL     1       6.317  34.018  13.516  0.00  0.00    -0.203 N 
ATOM     13  C   UNL     1       5.610  35.055  14.101  0.00  0.00    +0.267 C 
ATOM     14  O   UNL     1       6.077  36.160  14.367  0.00  0.00    -0.268 OA
ATOM     15  H   UNL     1       5.863  33.162  13.341  0.00  0.00    +0.000 HD
BRANCH  13  16
ATOM     16  C   UNL     1       4.172  34.764  14.419  0.00  0.00    +0.080 A 
ATOM     17  C   UNL     1       3.818  34.640  15.775  0.00  0.00    -0.043 A 
ATOM     18  C   UNL     1       2.499  34.365  16.152  0.00  0.00    -0.019 A 
ATOM     19  C   UNL     1       1.528  34.213  15.171  0.00  0.00    +0.120 A 
ATOM     20  C   UNL     1       1.848  34.340  13.825  0.00  0.00    +0.022 A 
ATOM     21  C   UNL     1       3.167  34.613  13.448  0.00  0.00    +0.132 A 
BRANCH  19  22
ATOM     22  O   UNL     1       0.231  33.934  15.484  0.00  0.00    -0.507 OA
ATOM     23  H   UNL     1      -0.287  34.564  15.944  0.00  0.00    +0.000 HD
ENDBRANCH  19  22
BRANCH  21  24
ATOM     24  O   UNL     1       3.455  34.726  12.112  0.00  0.00    -0.506 OA
ATOM     25  H   UNL     1       2.945  34.256  11.481  0.00  0.00    +0.000 HD
ENDBRANCH  21  24
ENDBRANCH  13  16
ENDBRANCH  11  12
ENDBRANCH   9  10
BRANCH   7  26
ATOM     26  C   UNL     1      13.106  32.179  12.881  0.00  0.00    +0.048 C 
BRANCH  26  27
ATOM     27  C   UNL     1      13.594  32.978  14.065  0.00  0.00    -0.028 A 
ATOM     28  C   UNL     1      13.704  32.379  15.328  0.00  0.00    -0.055 A 
ATOM     29  C   UNL     1      14.010  33.147  16.452  0.00  0.00    -0.043 A 
ATOM     30  C   UNL     1      14.230  34.515  16.317  0.00  0.00    +0.041 A 
ATOM     31  C   UNL     1      14.201  35.112  15.060  0.00  0.00    -0.043 A 
ATOM     32  C   UNL     1      13.887  34.345  13.935  0.00  0.00    -0.055 A 
ATOM     33 CL   UNL     1      14.504  35.477  17.717  0.00  0.00    -0.084 Cl
ENDBRANCH  26  27
ENDBRANCH   7  26
TORSDOF 7
ENDMDL
