MODEL 1
REMARK VINA RESULT:    -7.783      0.000      0.000
REMARK INTER + INTRA:         -11.183
REMARK INTER:                 -10.286
REMARK INTRA:                  -0.897
REMARK UNBOUND:                -0.897
REMARK  Name = 27c.sdf
REMARK  6 active torsions:
REMARK  status: ('A' for Active; 'I' for Inactive)
REMARK    1  A    between atoms: N_7  and  C_10
REMARK    2  A    between atoms: C_9  and  C_18
REMARK    3  A    between atoms: C_10  and  C_11
REMARK    4  A    between atoms: N_19  and  N_20
REMARK    5  A    between atoms: C_21  and  C_23
REMARK    6  A    between atoms: C_26  and  N_29
REMARK                            x       y       z     vdW  Elec       q    Type
REMARK                         _______ _______ _______ _____ _____    ______ ____
ROOT
ATOM      1  C   UNL     1      11.423  35.647   9.849  0.00  0.00    -0.061 A 
ATOM      2  C   UNL     1      12.724  35.178   9.977  0.00  0.00    -0.060 A 
ATOM      3  C   UNL     1      13.040  34.169  10.892  0.00  0.00    -0.038 A 
ATOM      4  C   UNL     1      12.007  33.635  11.683  0.00  0.00    +0.050 A 
ATOM      5  C   UNL     1      10.680  34.054  11.531  0.00  0.00    +0.009 A 
ATOM      6  C   UNL     1      10.394  35.085  10.609  0.00  0.00    -0.052 A 
ATOM      7  N   UNL     1      12.019  32.694  12.697  0.00  0.00    -0.342 N 
ATOM      8  C   UNL     1      10.734  32.454  13.119  0.00  0.00    +0.015 A 
ATOM      9  C   UNL     1       9.873  33.274  12.412  0.00  0.00    +0.020 A 
ENDROOT
BRANCH   9  10
ATOM     10  C   UNL     1       8.431  33.308  12.546  0.00  0.00    +0.055 C 
ATOM     11  N   UNL     1       7.862  34.300  13.149  0.00  0.00    -0.187 NA
BRANCH  11  12
ATOM     12  N   UNL     1       6.495  34.247  13.239  0.00  0.00    -0.203 N 
ATOM     13  C   UNL     1       5.816  35.249  13.921  0.00  0.00    +0.263 C 
ATOM     14  O   UNL     1       6.341  36.218  14.460  0.00  0.00    -0.268 OA
ATOM     15  H   UNL     1       5.998  33.506  12.824  0.00  0.00    +0.000 HD
BRANCH  13  16
ATOM     16  C   UNL     1       4.328  35.129  13.943  0.00  0.00    +0.038 A 
ATOM     17  C   UNL     1       3.657  33.969  13.543  0.00  0.00    -0.048 A 
ATOM     18  C   UNL     1       2.257  33.921  13.580  0.00  0.00    -0.040 A 
ATOM     19  C   UNL     1       1.510  35.032  13.983  0.00  0.00    +0.025 A 
ATOM     20  C   UNL     1       2.187  36.153  14.466  0.00  0.00    -0.040 A 
ATOM     21  C   UNL     1       3.586  36.212  14.431  0.00  0.00    -0.048 A 
BRANCH  19  22
ATOM     22  N   UNL     1       0.122  34.934  14.124  0.00  0.00    -0.358 N 
ATOM     23  H   UNL     1      -0.464  35.608  13.709  0.00  0.00    +0.000 HD
ATOM     24  H   UNL     1      -0.269  34.191  14.638  0.00  0.00    +0.000 HD
ENDBRANCH  19  22
ENDBRANCH  13  16
ENDBRANCH  11  12
ENDBRANCH   9  10
BRANCH   7  25
ATOM     25  C   UNL     1      13.202  32.115  13.335  0.00  0.00    +0.048 C 
BRANCH  25  26
ATOM     26  C   UNL     1      13.669  32.944  14.506  0.00  0.00    -0.028 A 
ATOM     27  C   UNL     1      13.530  32.466  15.818  0.00  0.00    -0.055 A 
ATOM     28  C   UNL     1      13.822  33.289  16.907  0.00  0.00    -0.043 A 
ATOM     29  C   UNL     1      14.275  34.587  16.691  0.00  0.00    +0.041 A 
ATOM     30  C   UNL     1      14.491  35.052  15.398  0.00  0.00    -0.043 A 
ATOM     31  C   UNL     1      14.191  34.232  14.307  0.00  0.00    -0.055 A 
ATOM     32 CL   UNL     1      14.539  35.632  18.033  0.00  0.00    -0.084 Cl
ENDBRANCH  25  26
ENDBRANCH   7  25
TORSDOF 6
ENDMDL
