MODEL 1
REMARK VINA RESULT:    -5.612      0.000      0.000
REMARK INTER + INTRA:          -6.130
REMARK INTER:                  -6.104
REMARK INTRA:                  -0.025
REMARK UNBOUND:                -0.025
REMARK  Name = 4.sdf
REMARK  2 active torsions:
REMARK  status: ('A' for Active; 'I' for Inactive)
REMARK    1  A    between atoms: C_9  and  C_10
REMARK    2  A    between atoms: C_10  and  O_11
REMARK                            x       y       z     vdW  Elec       q    Type
REMARK                         _______ _______ _______ _____ _____    ______ ____
ROOT
ATOM      1  C   UNL     1      12.064  34.594  10.947  0.00  0.00    -0.061 A 
ATOM      2  C   UNL     1      11.004  35.128  10.219  0.00  0.00    -0.060 A 
ATOM      3  C   UNL     1       9.683  34.788  10.522  0.00  0.00    -0.038 A 
ATOM      4  C   UNL     1       9.465  33.891  11.575  0.00  0.00    +0.047 A 
ATOM      5  C   UNL     1      10.506  33.327  12.317  0.00  0.00    +0.005 A 
ATOM      6  C   UNL     1      11.829  33.696  11.997  0.00  0.00    -0.052 A 
ATOM      7  N   UNL     1       8.288  33.390  12.077  0.00  0.00    -0.360 N 
ATOM      8  C   UNL     1       8.546  32.520  13.099  0.00  0.00    +0.008 A 
ATOM      9  C   UNL     1       9.914  32.442  13.280  0.00  0.00    +0.003 A 
ATOM     10  H   UNL     1       7.390  33.624  11.749  0.00  0.00    +0.000 HD
ENDROOT
BRANCH   9  11
ATOM     11  C   UNL     1      10.616  31.575  14.270  0.00  0.00    +0.071 C 
BRANCH  11  12
ATOM     12  O   UNL     1      10.019  30.285  14.363  0.00  0.00    -0.390 OA
ATOM     13  H   UNL     1      10.544  29.728  14.958  0.00  0.00    +0.000 HD
ENDBRANCH  11  12
ENDBRANCH   9  11
TORSDOF 2
ENDMDL
