MODEL 1
REMARK VINA RESULT:    -7.229      0.000      0.000
REMARK INTER + INTRA:          -9.030
REMARK INTER:                  -8.708
REMARK INTRA:                  -0.322
REMARK UNBOUND:                -0.322
REMARK  Name = 4b.sdf
REMARK  4 active torsions:
REMARK  status: ('A' for Active; 'I' for Inactive)
REMARK    1  A    between atoms: N_7  and  C_11
REMARK    2  A    between atoms: C_9  and  C_10
REMARK    3  A    between atoms: C_10  and  O_18
REMARK    4  A    between atoms: C_11  and  C_12
REMARK                            x       y       z     vdW  Elec       q    Type
REMARK                         _______ _______ _______ _____ _____    ______ ____
ROOT
ATOM      1  C   UNL     1      18.231  36.953   6.606  0.00  0.00    -0.061 A 
ATOM      2  C   UNL     1      18.095  35.753   7.298  0.00  0.00    -0.060 A 
ATOM      3  C   UNL     1      17.017  35.531   8.164  0.00  0.00    -0.038 A 
ATOM      4  C   UNL     1      16.077  36.562   8.343  0.00  0.00    +0.050 A 
ATOM      5  C   UNL     1      16.162  37.746   7.600  0.00  0.00    +0.005 A 
ATOM      6  C   UNL     1      17.260  37.943   6.733  0.00  0.00    -0.052 A 
ATOM      7  N   UNL     1      14.983  36.698   9.183  0.00  0.00    -0.342 N 
ATOM      8  C   UNL     1      14.343  37.884   8.907  0.00  0.00    +0.011 A 
ATOM      9  C   UNL     1      15.024  38.550   7.919  0.00  0.00    +0.003 A 
ENDROOT
BRANCH   9  10
ATOM     10  C   UNL     1      14.692  39.875   7.321  0.00  0.00    +0.071 C 
BRANCH  10  11
ATOM     11  O   UNL     1      13.501  40.426   7.873  0.00  0.00    -0.390 OA
ATOM     12  H   UNL     1      12.762  39.818   7.717  0.00  0.00    +0.000 HD
ENDBRANCH  10  11
ENDBRANCH   9  10
BRANCH   7  13
ATOM     13  C   UNL     1      14.622  35.840  10.317  0.00  0.00    +0.048 C 
BRANCH  13  14
ATOM     14  C   UNL     1      13.181  35.398  10.259  0.00  0.00    -0.025 A 
ATOM     15  C   UNL     1      12.444  35.232  11.434  0.00  0.00    -0.039 A 
ATOM     16  C   UNL     1      11.165  34.702  11.352  0.00  0.00    +0.028 A 
ATOM     17  N   UNL     1      10.562  34.372  10.192  0.00  0.00    -0.263 NA
ATOM     18  C   UNL     1      11.267  34.586   9.061  0.00  0.00    +0.028 A 
ATOM     19  C   UNL     1      12.557  35.096   9.042  0.00  0.00    -0.039 A 
ENDBRANCH  13  14
ENDBRANCH   7  13
TORSDOF 4
ENDMDL
