MODEL 1
REMARK VINA RESULT:    -7.888      0.000      0.000
REMARK INTER + INTRA:         -11.014
REMARK INTER:                 -10.194
REMARK INTRA:                  -0.820
REMARK UNBOUND:                -0.820
REMARK  Name = 5a.sdf
REMARK  6 active torsions:
REMARK  status: ('A' for Active; 'I' for Inactive)
REMARK    1  A    between atoms: N_7  and  C_12
REMARK    2  A    between atoms: C_9  and  C_10
REMARK    3  A    between atoms: C_11  and  C_20
REMARK    4  A    between atoms: C_12  and  C_13
REMARK    5  A    between atoms: C_20  and  O_21
REMARK    6  A    between atoms: O_21  and  C_23
REMARK                            x       y       z     vdW  Elec       q    Type
REMARK                         _______ _______ _______ _____ _____    ______ ____
ROOT
ATOM      1  C   UNL     1      14.051  33.774  13.887  0.00  0.00    -0.061 A 
ATOM      2  C   UNL     1      13.273  32.649  14.150  0.00  0.00    -0.060 A 
ATOM      3  C   UNL     1      12.140  32.358  13.373  0.00  0.00    -0.038 A 
ATOM      4  C   UNL     1      11.785  33.242  12.333  0.00  0.00    +0.050 A 
ATOM      5  C   UNL     1      12.597  34.345  12.017  0.00  0.00    +0.007 A 
ATOM      6  C   UNL     1      13.734  34.607  12.814  0.00  0.00    -0.052 A 
ATOM      7  N   UNL     1      10.700  33.288  11.469  0.00  0.00    -0.342 N 
ATOM      8  C   UNL     1      10.873  34.325  10.565  0.00  0.00    +0.013 A 
ATOM      9  C   UNL     1      12.042  34.993  10.869  0.00  0.00    +0.000 A 
ENDROOT
BRANCH   9  10
ATOM     10  C   UNL     1      12.625  36.125  10.187  0.00  0.00    -0.046 C 
ATOM     11  C   UNL     1      13.880  36.232   9.726  0.00  0.00    +0.023 C 
BRANCH  11  12
ATOM     12  C   UNL     1      14.503  37.408   9.047  0.00  0.00    +0.332 C 
ATOM     13  O   UNL     1      15.632  37.345   8.597  0.00  0.00    -0.246 OA
BRANCH  12  14
ATOM     14  O   UNL     1      13.703  38.506   9.007  0.00  0.00    -0.465 OA
ATOM     15  C   UNL     1      14.177  39.556   8.151  0.00  0.00    +0.082 C 
ENDBRANCH  12  14
ENDBRANCH  11  12
ENDBRANCH   9  10
BRANCH   7  16
ATOM     16  C   UNL     1       9.467  32.493  11.559  0.00  0.00    +0.048 C 
BRANCH  16  17
ATOM     17  C   UNL     1       8.612  32.896  12.737  0.00  0.00    -0.028 A 
ATOM     18  C   UNL     1       7.914  34.112  12.722  0.00  0.00    -0.056 A 
ATOM     19  C   UNL     1       7.309  34.595  13.883  0.00  0.00    -0.047 A 
ATOM     20  C   UNL     1       7.365  33.846  15.054  0.00  0.00    +0.018 A 
ATOM     21  C   UNL     1       7.952  32.583  15.055  0.00  0.00    -0.047 A 
ATOM     22  C   UNL     1       8.569  32.107  13.897  0.00  0.00    -0.056 A 
ATOM     23 BR   UNL     1       6.713  34.580  16.669  0.00  0.00    -0.050 Br
ENDBRANCH  16  17
ENDBRANCH   7  16
TORSDOF 5
ENDMDL
