MODEL 1
REMARK VINA RESULT:    -5.956      0.000      0.000
REMARK INTER + INTRA:          -7.254
REMARK INTER:                  -7.001
REMARK INTRA:                  -0.253
REMARK UNBOUND:                -0.253
REMARK  Name = 7.sdf
REMARK  4 active torsions:
REMARK  status: ('A' for Active; 'I' for Inactive)
REMARK    1  A    between atoms: C_9  and  C_10
REMARK    2  A    between atoms: C_10  and  C_11
REMARK    3  A    between atoms: C_11  and  O_13
REMARK    4  A    between atoms: O_13  and  C_14
REMARK                            x       y       z     vdW  Elec       q    Type
REMARK                         _______ _______ _______ _____ _____    ______ ____
ROOT
ATOM      1  C   UNL     1      13.488  34.299  12.945  0.00  0.00    -0.061 A 
ATOM      2  C   UNL     1      14.375  34.693  11.946  0.00  0.00    -0.060 A 
ATOM      3  C   UNL     1      13.911  35.059  10.679  0.00  0.00    -0.038 A 
ATOM      4  C   UNL     1      12.529  35.027  10.458  0.00  0.00    +0.047 A 
ATOM      5  C   UNL     1      11.611  34.656  11.441  0.00  0.00    +0.003 A 
ATOM      6  C   UNL     1      12.107  34.276  12.707  0.00  0.00    -0.052 A 
ATOM      7  N   UNL     1      11.810  35.325   9.324  0.00  0.00    -0.360 N 
ATOM      8  C   UNL     1      10.471  35.197   9.566  0.00  0.00    +0.006 A 
ATOM      9  C   UNL     1      10.299  34.784  10.875  0.00  0.00    -0.012 A 
ATOM     10  H   UNL     1      12.204  35.594   8.463  0.00  0.00    +0.000 HD
ENDROOT
BRANCH   9  11
ATOM     11  C   UNL     1       8.989  34.572  11.567  0.00  0.00    +0.072 C 
BRANCH  11  12
ATOM     12  C   UNL     1       8.686  33.127  11.904  0.00  0.00    +0.311 C 
ATOM     13  O   UNL     1       8.926  32.144  11.217  0.00  0.00    -0.250 OA
BRANCH  12  14
ATOM     14  O   UNL     1       8.066  33.086  13.125  0.00  0.00    -0.468 OA
ATOM     15  C   UNL     1       7.509  34.329  13.561  0.00  0.00    +0.082 C 
ENDBRANCH  12  14
ENDBRANCH  11  12
ENDBRANCH   9  11
TORSDOF 3
ENDMDL
