MODEL 1
REMARK VINA RESULT:    -7.303      0.000      0.000
REMARK INTER + INTRA:          -9.805
REMARK INTER:                  -9.438
REMARK INTRA:                  -0.368
REMARK UNBOUND:                -0.368
REMARK  Name = 7b.sdf
REMARK  6 active torsions:
REMARK  status: ('A' for Active; 'I' for Inactive)
REMARK    1  A    between atoms: N_7  and  C_12
REMARK    2  A    between atoms: C_9  and  C_10
REMARK    3  A    between atoms: C_10  and  C_11
REMARK    4  A    between atoms: C_11  and  O_20
REMARK    5  A    between atoms: C_12  and  C_13
REMARK    6  A    between atoms: O_20  and  C_21
REMARK                            x       y       z     vdW  Elec       q    Type
REMARK                         _______ _______ _______ _____ _____    ______ ____
ROOT
ATOM      1  C   UNL     1      13.115  32.883  13.493  0.00  0.00    -0.061 A 
ATOM      2  C   UNL     1      14.336  33.547  13.560  0.00  0.00    -0.060 A 
ATOM      3  C   UNL     1      14.735  34.420  12.544  0.00  0.00    -0.038 A 
ATOM      4  C   UNL     1      13.873  34.609  11.453  0.00  0.00    +0.050 A 
ATOM      5  C   UNL     1      12.621  33.986  11.384  0.00  0.00    +0.004 A 
ATOM      6  C   UNL     1      12.246  33.104  12.420  0.00  0.00    -0.052 A 
ATOM      7  N   UNL     1      14.008  35.359  10.302  0.00  0.00    -0.342 N 
ATOM      8  C   UNL     1      12.864  35.276   9.546  0.00  0.00    +0.010 A 
ATOM      9  C   UNL     1      11.972  34.444  10.193  0.00  0.00    -0.012 A 
ENDROOT
BRANCH   9  10
ATOM     10  C   UNL     1      10.597  34.087   9.723  0.00  0.00    +0.072 C 
BRANCH  10  11
ATOM     11  C   UNL     1       9.521  34.382  10.749  0.00  0.00    +0.311 C 
ATOM     12  O   UNL     1       9.187  35.482  11.171  0.00  0.00    -0.250 OA
BRANCH  11  13
ATOM     13  O   UNL     1       8.950  33.201  11.144  0.00  0.00    -0.468 OA
ATOM     14  C   UNL     1       8.580  33.170  12.523  0.00  0.00    +0.082 C 
ENDBRANCH  11  13
ENDBRANCH  10  11
ENDBRANCH   9  10
BRANCH   7  15
ATOM     15  C   UNL     1      15.210  36.073   9.878  0.00  0.00    +0.048 C 
BRANCH  15  16
ATOM     16  C   UNL     1      14.957  37.336   9.092  0.00  0.00    -0.025 A 
ATOM     17  C   UNL     1      13.975  38.276   9.419  0.00  0.00    -0.039 A 
ATOM     18  C   UNL     1      13.813  39.388   8.606  0.00  0.00    +0.028 A 
ATOM     19  N   UNL     1      14.563  39.638   7.513  0.00  0.00    -0.263 NA
ATOM     20  C   UNL     1      15.521  38.736   7.220  0.00  0.00    +0.028 A 
ATOM     21  C   UNL     1      15.755  37.591   7.967  0.00  0.00    -0.039 A 
ENDBRANCH  15  16
ENDBRANCH   7  15
TORSDOF 5
ENDMDL
