MODEL 1
REMARK VINA RESULT:    -7.969      0.000      0.000
REMARK INTER + INTRA:         -11.206
REMARK INTER:                 -10.298
REMARK INTRA:                  -0.907
REMARK UNBOUND:                -0.907
REMARK  Name = 8c.sdf
REMARK  5 active torsions:
REMARK  status: ('A' for Active; 'I' for Inactive)
REMARK    1  A    between atoms: N_7  and  C_12
REMARK    2  A    between atoms: C_9  and  C_10
REMARK    3  A    between atoms: N_11  and  N_20
REMARK    4  A    between atoms: C_12  and  C_13
REMARK    5  A    between atoms: C_21  and  C_23
REMARK                            x       y       z     vdW  Elec       q    Type
REMARK                         _______ _______ _______ _____ _____    ______ ____
ROOT
ATOM      1  C   UNL     1      11.378  35.589   9.774  0.00  0.00    -0.061 A 
ATOM      2  C   UNL     1      12.682  35.132   9.931  0.00  0.00    -0.060 A 
ATOM      3  C   UNL     1      12.991  34.159  10.886  0.00  0.00    -0.038 A 
ATOM      4  C   UNL     1      11.951  33.642  11.677  0.00  0.00    +0.050 A 
ATOM      5  C   UNL     1      10.623  34.054  11.505  0.00  0.00    +0.009 A 
ATOM      6  C   UNL     1      10.344  35.056  10.547  0.00  0.00    -0.052 A 
ATOM      7  N   UNL     1      11.953  32.722  12.707  0.00  0.00    -0.342 N 
ATOM      8  C   UNL     1      10.669  32.495  13.133  0.00  0.00    +0.015 A 
ATOM      9  C   UNL     1       9.811  33.297  12.405  0.00  0.00    +0.020 A 
ENDROOT
BRANCH   9  10
ATOM     10  C   UNL     1       8.370  33.344  12.537  0.00  0.00    +0.055 C 
ATOM     11  N   UNL     1       7.811  34.335  13.153  0.00  0.00    -0.187 NA
BRANCH  11  12
ATOM     12  N   UNL     1       6.448  34.292  13.238  0.00  0.00    -0.203 N 
ATOM     13  C   UNL     1       5.774  35.307  13.905  0.00  0.00    +0.263 C 
ATOM     14  O   UNL     1       6.302  36.284  14.428  0.00  0.00    -0.268 OA
ATOM     15  H   UNL     1       5.948  33.548  12.832  0.00  0.00    +0.000 HD
BRANCH  13  16
ATOM     16  C   UNL     1       4.287  35.185  13.933  0.00  0.00    +0.038 A 
ATOM     17  C   UNL     1       3.618  34.022  13.523  0.00  0.00    -0.049 A 
ATOM     18  C   UNL     1       2.221  33.962  13.567  0.00  0.00    -0.047 A 
ATOM     19  C   UNL     1       1.493  35.059  14.027  0.00  0.00    +0.018 A 
ATOM     20  C   UNL     1       2.147  36.212  14.457  0.00  0.00    -0.047 A 
ATOM     21  C   UNL     1       3.544  36.271  14.414  0.00  0.00    -0.049 A 
ATOM     22 BR   UNL     1      -0.395  34.978  14.079  0.00  0.00    -0.050 Br
ENDBRANCH  13  16
ENDBRANCH  11  12
ENDBRANCH   9  10
BRANCH   7  23
ATOM     23  C   UNL     1      13.134  32.136  13.342  0.00  0.00    +0.048 C 
BRANCH  23  24
ATOM     24  C   UNL     1      13.595  32.952  14.524  0.00  0.00    -0.028 A 
ATOM     25  C   UNL     1      13.466  32.454  15.829  0.00  0.00    -0.055 A 
ATOM     26  C   UNL     1      13.799  33.247  16.929  0.00  0.00    -0.043 A 
ATOM     27  C   UNL     1      14.275  34.542  16.729  0.00  0.00    +0.041 A 
ATOM     28  C   UNL     1      14.453  35.035  15.439  0.00  0.00    -0.043 A 
ATOM     29  C   UNL     1      14.116  34.243  14.340  0.00  0.00    -0.055 A 
ATOM     30 CL   UNL     1      14.625  35.540  18.086  0.00  0.00    -0.084 Cl
ENDBRANCH  23  24
ENDBRANCH   7  23
TORSDOF 5
ENDMDL
