MODEL 1
REMARK VINA RESULT:    -5.807      0.000      0.000
REMARK INTER + INTRA:          -5.807
REMARK INTER:                  -5.807
REMARK INTRA:                   0.000
REMARK UNBOUND:                 0.000
REMARK  Name = 0.sdf
REMARK  0 active torsions:
REMARK  status: ('A' for Active; 'I' for Inactive)
REMARK                            x       y       z     vdW  Elec       q    Type
REMARK                         _______ _______ _______ _____ _____    ______ ____
ROOT
ATOM      1  C   UNL     1       0.332   6.380  -0.783  0.00  0.00    -0.061 A 
ATOM      2  C   UNL     1       1.036   7.460  -1.310  0.00  0.00    -0.060 A 
ATOM      3  C   UNL     1       0.371   8.513  -1.948  0.00  0.00    -0.038 A 
ATOM      4  C   UNL     1      -1.024   8.436  -2.040  0.00  0.00    +0.046 A 
ATOM      5  C   UNL     1      -1.754   7.366  -1.524  0.00  0.00    -0.000 A 
ATOM      6  C   UNL     1      -1.063   6.321  -0.880  0.00  0.00    -0.053 A 
ATOM      7  N   UNL     1      -1.927   9.306  -2.607  0.00  0.00    -0.361 N 
ATOM      8  C   UNL     1      -3.201   8.820  -2.475  0.00  0.00    +0.003 A 
ATOM      9  C   UNL     1      -3.126   7.621  -1.804  0.00  0.00    -0.037 A 
ATOM     10  H   UNL     1      -1.692  10.156  -3.045  0.00  0.00    +0.000 HD
ENDROOT
TORSDOF 0
ENDMDL
