MODEL 1
REMARK VINA RESULT:    -5.779      0.000      0.000
REMARK INTER + INTRA:          -7.010
REMARK INTER:                  -6.454
REMARK INTRA:                  -0.555
REMARK UNBOUND:                -0.555
REMARK  Name = 0c.sdf
REMARK  2 active torsions:
REMARK  status: ('A' for Active; 'I' for Inactive)
REMARK    1  A    between atoms: N_7  and  C_10
REMARK    2  A    between atoms: C_10  and  C_11
REMARK                            x       y       z     vdW  Elec       q    Type
REMARK                         _______ _______ _______ _____ _____    ______ ____
ROOT
ATOM      1  C   UNL     1      -1.597  17.150  -5.929  0.00  0.00    -0.061 A 
ATOM      2  C   UNL     1      -2.712  16.722  -5.218  0.00  0.00    -0.060 A 
ATOM      3  C   UNL     1      -2.606  16.320  -3.882  0.00  0.00    -0.038 A 
ATOM      4  C   UNL     1      -1.342  16.368  -3.271  0.00  0.00    +0.049 A 
ATOM      5  C   UNL     1      -0.214  16.821  -3.964  0.00  0.00    -0.000 A 
ATOM      6  C   UNL     1      -0.344  17.212  -5.309  0.00  0.00    -0.053 A 
ATOM      7  N   UNL     1      -0.917  16.021  -2.000  0.00  0.00    -0.342 N 
ATOM      8  C   UNL     1       0.424  16.288  -1.863  0.00  0.00    +0.006 A 
ATOM      9  C   UNL     1       0.883  16.780  -3.062  0.00  0.00    -0.036 A 
ENDROOT
BRANCH   7  10
ATOM     10  C   UNL     1      -1.728  15.388  -0.963  0.00  0.00    +0.048 C 
BRANCH  10  11
ATOM     11  C   UNL     1      -1.736  13.886  -1.107  0.00  0.00    -0.028 A 
ATOM     12  C   UNL     1      -2.742  13.245  -1.845  0.00  0.00    -0.055 A 
ATOM     13  C   UNL     1      -2.819  11.852  -1.879  0.00  0.00    -0.043 A 
ATOM     14  C   UNL     1      -1.882  11.090  -1.186  0.00  0.00    +0.041 A 
ATOM     15  C   UNL     1      -0.847  11.708  -0.490  0.00  0.00    -0.043 A 
ATOM     16  C   UNL     1      -0.771  13.102  -0.453  0.00  0.00    -0.055 A 
ATOM     17 CL   UNL     1      -2.019   9.375  -1.171  0.00  0.00    -0.084 Cl
ENDBRANCH  10  11
ENDBRANCH   7  10
TORSDOF 2
ENDMDL
