MODEL 1
REMARK VINA RESULT:    -7.392      0.000      0.000
REMARK INTER + INTRA:          -9.785
REMARK INTER:                  -9.121
REMARK INTRA:                  -0.664
REMARK UNBOUND:                -0.664
REMARK  Name = 10.sdf
REMARK  5 active torsions:
REMARK  status: ('A' for Active; 'I' for Inactive)
REMARK    1  A    between atoms: C_9  and  C_10
REMARK    2  A    between atoms: C_11  and  C_12
REMARK    3  A    between atoms: C_12  and  C_13
REMARK    4  A    between atoms: C_17  and  O_20
REMARK    5  A    between atoms: O_20  and  C_21
REMARK                            x       y       z     vdW  Elec       q    Type
REMARK                         _______ _______ _______ _____ _____    ______ ____
ROOT
ATOM      1  C   UNL     1      -2.847  10.645  -2.174  0.00  0.00    -0.049 C 
ATOM      2  C   UNL     1      -2.753  11.568  -1.200  0.00  0.00    -0.014 C 
ENDROOT
BRANCH   1  11
ATOM      3  C   UNL     1       1.029   8.095  -1.331  0.00  0.00    -0.061 A 
ATOM      4  C   UNL     1       0.736   6.737  -1.242  0.00  0.00    -0.060 A 
ATOM      5  C   UNL     1      -0.574   6.281  -1.391  0.00  0.00    -0.038 A 
ATOM      6  C   UNL     1      -1.574   7.233  -1.628  0.00  0.00    +0.047 A 
ATOM      7  C   UNL     1      -1.320   8.604  -1.727  0.00  0.00    +0.007 A 
ATOM      8  C   UNL     1       0.016   9.037  -1.574  0.00  0.00    -0.052 A 
ATOM      9  N   UNL     1      -2.922   7.051  -1.804  0.00  0.00    -0.360 N 
ATOM     10  C   UNL     1      -3.538   8.252  -2.014  0.00  0.00    +0.010 A 
ATOM     11  C   UNL     1      -2.581   9.247  -1.978  0.00  0.00    +0.000 A 
ATOM     12  H   UNL     1      -3.381   6.180  -1.782  0.00  0.00    +0.000 HD
ENDBRANCH   1  11
BRANCH   2  13
ATOM     13  C   UNL     1      -3.074  13.009  -1.394  0.00  0.00    +0.186 C 
ATOM     14  O   UNL     1      -4.210  13.452  -1.284  0.00  0.00    -0.287 OA
BRANCH  13  15
ATOM     15  C   UNL     1      -1.934  13.888  -1.791  0.00  0.00    +0.022 A 
ATOM     16  C   UNL     1      -0.657  13.635  -1.280  0.00  0.00    -0.047 A 
ATOM     17  C   UNL     1       0.420  14.469  -1.616  0.00  0.00    -0.019 A 
ATOM     18  C   UNL     1       0.230  15.553  -2.475  0.00  0.00    +0.120 A 
ATOM     19  C   UNL     1      -1.040  15.786  -3.008  0.00  0.00    -0.019 A 
ATOM     20  C   UNL     1      -2.116  14.958  -2.677  0.00  0.00    -0.047 A 
BRANCH  18  21
ATOM     21  O   UNL     1       1.181  16.452  -2.871  0.00  0.00    -0.495 OA
ATOM     22  C   UNL     1       2.150  16.838  -1.905  0.00  0.00    +0.079 C 
ENDBRANCH  18  21
ENDBRANCH  13  15
ENDBRANCH   2  13
TORSDOF 4
ENDMDL
