MODEL 1
REMARK VINA RESULT:    -7.150      0.000      0.000
REMARK INTER + INTRA:         -10.808
REMARK INTER:                  -9.658
REMARK INTRA:                  -1.150
REMARK UNBOUND:                -1.150
REMARK  Name = 10a.sdf
REMARK  7 active torsions:
REMARK  status: ('A' for Active; 'I' for Inactive)
REMARK    1  A    between atoms: N_7  and  C_22
REMARK    2  A    between atoms: C_9  and  C_10
REMARK    3  A    between atoms: C_11  and  C_12
REMARK    4  A    between atoms: C_12  and  C_13
REMARK    5  A    between atoms: C_17  and  O_20
REMARK    6  A    between atoms: O_20  and  C_21
REMARK    7  A    between atoms: C_22  and  C_23
REMARK                            x       y       z     vdW  Elec       q    Type
REMARK                         _______ _______ _______ _____ _____    ______ ____
ROOT
ATOM      1  C   UNL     1      -0.282  12.123  -0.426  0.00  0.00    -0.061 A 
ATOM      2  C   UNL     1      -1.571  11.742  -0.778  0.00  0.00    -0.060 A 
ATOM      3  C   UNL     1      -2.379  12.573  -1.560  0.00  0.00    -0.038 A 
ATOM      4  C   UNL     1      -1.854  13.802  -1.991  0.00  0.00    +0.050 A 
ATOM      5  C   UNL     1      -0.543  14.190  -1.681  0.00  0.00    +0.007 A 
ATOM      6  C   UNL     1       0.243  13.338  -0.876  0.00  0.00    -0.052 A 
ATOM      7  N   UNL     1      -2.416  14.831  -2.725  0.00  0.00    -0.342 N 
ATOM      8  C   UNL     1      -1.478  15.814  -2.946  0.00  0.00    +0.013 A 
ATOM      9  C   UNL     1      -0.308  15.449  -2.315  0.00  0.00    +0.000 A 
ENDROOT
BRANCH   9  10
ATOM     10  C   UNL     1       0.923  16.180  -2.313  0.00  0.00    -0.049 C 
ATOM     11  C   UNL     1       1.068  17.451  -1.916  0.00  0.00    -0.014 C 
BRANCH  11  12
ATOM     12  C   UNL     1       2.384  18.140  -2.029  0.00  0.00    +0.186 C 
ATOM     13  O   UNL     1       2.904  18.741  -1.104  0.00  0.00    -0.287 OA
BRANCH  12  14
ATOM     14  C   UNL     1       3.035  18.083  -3.377  0.00  0.00    +0.022 A 
ATOM     15  C   UNL     1       4.273  17.453  -3.505  0.00  0.00    -0.047 A 
ATOM     16  C   UNL     1       4.924  17.451  -4.743  0.00  0.00    -0.019 A 
ATOM     17  C   UNL     1       4.342  18.053  -5.859  0.00  0.00    +0.120 A 
ATOM     18  C   UNL     1       3.083  18.649  -5.741  0.00  0.00    -0.019 A 
ATOM     19  C   UNL     1       2.432  18.661  -4.504  0.00  0.00    -0.047 A 
BRANCH  17  20
ATOM     20  O   UNL     1       5.102  18.040  -6.992  0.00  0.00    -0.495 OA
ATOM     21  C   UNL     1       4.442  18.363  -8.210  0.00  0.00    +0.079 C 
ENDBRANCH  17  20
ENDBRANCH  12  14
ENDBRANCH  11  12
ENDBRANCH   9  10
BRANCH   7  22
ATOM     22  C   UNL     1      -3.819  14.942  -3.122  0.00  0.00    +0.048 C 
BRANCH  22  23
ATOM     23  C   UNL     1      -4.744  14.923  -1.930  0.00  0.00    -0.028 A 
ATOM     24  C   UNL     1      -4.444  15.671  -0.783  0.00  0.00    -0.056 A 
ATOM     25  C   UNL     1      -5.241  15.575   0.359  0.00  0.00    -0.047 A 
ATOM     26  C   UNL     1      -6.354  14.738   0.355  0.00  0.00    +0.018 A 
ATOM     27  C   UNL     1      -6.699  14.028  -0.793  0.00  0.00    -0.047 A 
ATOM     28  C   UNL     1      -5.898  14.122  -1.933  0.00  0.00    -0.056 A 
ATOM     29 BR   UNL     1      -7.385  14.541   1.927  0.00  0.00    -0.050 Br
ENDBRANCH  22  23
ENDBRANCH   7  22
TORSDOF 6
ENDMDL
