MODEL 1
REMARK VINA RESULT:    -5.740      0.000      0.000
REMARK INTER + INTRA:          -7.152
REMARK INTER:                  -6.747
REMARK INTRA:                  -0.406
REMARK UNBOUND:                -0.406
REMARK  Name = 14e.sdf
REMARK  5 active torsions:
REMARK  status: ('A' for Active; 'I' for Inactive)
REMARK    1  A    between atoms: C_9  and  C_10
REMARK    2  A    between atoms: C_10  and  O_11
REMARK    3  A    between atoms: O_11  and  C_12
REMARK    4  A    between atoms: C_12  and  C_13
REMARK    5  A    between atoms: C_15  and  C_16
REMARK                            x       y       z     vdW  Elec       q    Type
REMARK                         _______ _______ _______ _____ _____    ______ ____
ROOT
ATOM      1  C   UNL     1      -3.008  16.013  -4.978  0.00  0.00    -0.061 A 
ATOM      2  C   UNL     1      -2.676  16.770  -6.092  0.00  0.00    -0.060 A 
ATOM      3  C   UNL     1      -1.467  17.470  -6.147  0.00  0.00    -0.037 A 
ATOM      4  C   UNL     1      -0.586  17.405  -5.048  0.00  0.00    +0.057 A 
ATOM      5  C   UNL     1      -0.913  16.650  -3.917  0.00  0.00    +0.007 A 
ATOM      6  C   UNL     1      -2.136  15.942  -3.892  0.00  0.00    -0.052 A 
ATOM      7  N   UNL     1       0.673  17.990  -4.837  0.00  0.00    -0.287 N 
ATOM      8  C   UNL     1       1.095  17.597  -3.574  0.00  0.00    +0.020 A 
ATOM      9  C   UNL     1       0.151  16.783  -2.980  0.00  0.00    +0.015 A 
ATOM     10  C   UNL     1       1.361  18.817  -5.761  0.00  0.00    +0.229 C 
ATOM     11  C   UNL     1       2.709  19.350  -5.369  0.00  0.00    +0.015 C 
ATOM     12  O   UNL     1       0.858  19.082  -6.848  0.00  0.00    -0.273 OA
ENDROOT
BRANCH   9  13
ATOM     13  C   UNL     1       0.235  16.144  -1.629  0.00  0.00    +0.119 C 
BRANCH  13  14
ATOM     14  O   UNL     1       0.989  14.922  -1.679  0.00  0.00    -0.460 OA
BRANCH  14  15
ATOM     15  C   UNL     1       0.357  13.811  -1.226  0.00  0.00    +0.304 C 
ATOM     16  C   UNL     1      -1.008  14.145  -0.706  0.00  0.00    +0.033 C 
ATOM     17  O   UNL     1       0.809  12.673  -1.237  0.00  0.00    -0.251 OA
ENDBRANCH  14  15
ENDBRANCH  13  14
ENDBRANCH   9  13
TORSDOF 3
ENDMDL
