MODEL 1
REMARK VINA RESULT:    -6.730      0.000      0.000
REMARK INTER + INTRA:          -8.632
REMARK INTER:                  -8.304
REMARK INTRA:                  -0.329
REMARK UNBOUND:                -0.329
REMARK  Name = 16.sdf
REMARK  4 active torsions:
REMARK  status: ('A' for Active; 'I' for Inactive)
REMARK    1  A    between atoms: C_9  and  C_10
REMARK    2  A    between atoms: C_10  and  O_11
REMARK    3  A    between atoms: O_11  and  C_12
REMARK    4  A    between atoms: C_12  and  C_13
REMARK                            x       y       z     vdW  Elec       q    Type
REMARK                         _______ _______ _______ _____ _____    ______ ____
ROOT
ATOM      1  C   UNL     1       0.584   7.703  -2.146  0.00  0.00    -0.061 A 
ATOM      2  C   UNL     1      -0.492   6.958  -2.625  0.00  0.00    -0.060 A 
ATOM      3  C   UNL     1      -1.794   7.462  -2.570  0.00  0.00    -0.038 A 
ATOM      4  C   UNL     1      -1.975   8.736  -2.020  0.00  0.00    +0.047 A 
ATOM      5  C   UNL     1      -0.920   9.512  -1.535  0.00  0.00    +0.005 A 
ATOM      6  C   UNL     1       0.385   8.977  -1.601  0.00  0.00    -0.052 A 
ATOM      7  N   UNL     1      -3.127   9.464  -1.842  0.00  0.00    -0.360 N 
ATOM      8  C   UNL     1      -2.841  10.666  -1.259  0.00  0.00    +0.008 A 
ATOM      9  C   UNL     1      -1.475  10.748  -1.061  0.00  0.00    +0.003 A 
ATOM     10  H   UNL     1      -4.029   9.162  -2.096  0.00  0.00    +0.000 HD
ENDROOT
BRANCH   9  11
ATOM     11  C   UNL     1      -0.732  11.897  -0.456  0.00  0.00    +0.075 C 
BRANCH  11  12
ATOM     12  O   UNL     1      -0.594  12.971  -1.390  0.00  0.00    -0.371 OA
BRANCH  12  13
ATOM     13  C   UNL     1      -1.539  14.012  -1.155  0.00  0.00    +0.073 C 
BRANCH  13  14
ATOM     14  C   UNL     1      -1.712  14.848  -2.403  0.00  0.00    -0.022 A 
ATOM     15  C   UNL     1      -2.849  14.681  -3.209  0.00  0.00    -0.055 A 
ATOM     16  C   UNL     1      -3.033  15.463  -4.352  0.00  0.00    -0.043 A 
ATOM     17  C   UNL     1      -2.087  16.428  -4.692  0.00  0.00    +0.041 A 
ATOM     18  C   UNL     1      -0.963  16.622  -3.894  0.00  0.00    -0.043 A 
ATOM     19  C   UNL     1      -0.780  15.839  -2.751  0.00  0.00    -0.055 A 
ATOM     20 CL   UNL     1      -2.311  17.388  -6.102  0.00  0.00    -0.084 Cl
ENDBRANCH  13  14
ENDBRANCH  12  13
ENDBRANCH  11  12
ENDBRANCH   9  11
TORSDOF 4
ENDMDL
