MODEL 1
REMARK VINA RESULT:    -6.862      0.000      0.000
REMARK INTER + INTRA:          -7.897
REMARK INTER:                  -7.664
REMARK INTRA:                  -0.233
REMARK UNBOUND:                -0.233
REMARK  Name = 17e.sdf
REMARK  3 active torsions:
REMARK  status: ('A' for Active; 'I' for Inactive)
REMARK    1  A    between atoms: C_9  and  C_10
REMARK    2  A    between atoms: N_11  and  N_12
REMARK    3  A    between atoms: C_16  and  C_17
REMARK                            x       y       z     vdW  Elec       q    Type
REMARK                         _______ _______ _______ _____ _____    ______ ____
ROOT
ATOM      1  C   UNL     1      -6.590  13.005  -0.962  0.00  0.00    -0.061 A 
ATOM      2  C   UNL     1      -6.577  14.325  -1.389  0.00  0.00    -0.060 A 
ATOM      3  C   UNL     1      -5.388  14.928  -1.807  0.00  0.00    -0.037 A 
ATOM      4  C   UNL     1      -4.195  14.176  -1.792  0.00  0.00    +0.057 A 
ATOM      5  C   UNL     1      -4.193  12.840  -1.365  0.00  0.00    +0.009 A 
ATOM      6  C   UNL     1      -5.411  12.255  -0.947  0.00  0.00    -0.052 A 
ATOM      7  N   UNL     1      -2.884  14.527  -2.153  0.00  0.00    -0.287 N 
ATOM      8  C   UNL     1      -2.099  13.408  -1.943  0.00  0.00    +0.022 A 
ATOM      9  C   UNL     1      -2.860  12.360  -1.465  0.00  0.00    +0.020 A 
ATOM     10  C   UNL     1      -2.468  15.792  -2.637  0.00  0.00    +0.229 C 
ATOM     11  C   UNL     1      -1.019  15.982  -2.975  0.00  0.00    +0.015 C 
ATOM     12  O   UNL     1      -3.286  16.700  -2.770  0.00  0.00    -0.273 OA
ENDROOT
BRANCH   9  13
ATOM     13  C   UNL     1      -2.347  11.042  -1.141  0.00  0.00    +0.055 C 
ATOM     14  N   UNL     1      -2.398  10.134  -2.063  0.00  0.00    -0.186 NA
BRANCH  14  15
ATOM     15  N   UNL     1      -1.908   8.902  -1.730  0.00  0.00    -0.191 N 
ATOM     16  C   UNL     1      -2.732   7.803  -1.666  0.00  0.00    +0.317 C 
ATOM     17  O   UNL     1      -2.333   6.683  -1.376  0.00  0.00    -0.251 OA
ATOM     18  N   UNL     1      -4.031   8.063  -1.955  0.00  0.00    -0.312 N 
ATOM     19  H   UNL     1      -0.950   8.799  -1.533  0.00  0.00    +0.000 HD
ATOM     20  H   UNL     1      -4.310   8.978  -2.185  0.00  0.00    +0.000 HD
ATOM     21  H   UNL     1      -4.694   7.336  -1.937  0.00  0.00    +0.000 HD
ENDBRANCH  14  15
ENDBRANCH   9  13
TORSDOF 2
ENDMDL
