MODEL 1
REMARK VINA RESULT:    -6.877      0.000      0.000
REMARK INTER + INTRA:         -10.835
REMARK INTER:                  -9.691
REMARK INTRA:                  -1.144
REMARK UNBOUND:                -1.144
REMARK  Name = 17k.sdf
REMARK  10 active torsions:
REMARK  status: ('A' for Active; 'I' for Inactive)
REMARK    1  A    between atoms: N_7  and  C_16
REMARK    2  A    between atoms: C_9  and  C_10
REMARK    3  A    between atoms: N_11  and  N_12
REMARK    4  A    between atoms: C_16  and  C_17
REMARK    5  A    between atoms: C_19  and  O_23
REMARK    6  A    between atoms: C_20  and  O_27
REMARK    7  A    between atoms: C_21  and  O_25
REMARK    8  A    between atoms: O_23  and  C_24
REMARK    9  A    between atoms: O_25  and  C_26
REMARK   10  A    between atoms: O_27  and  C_28
REMARK                            x       y       z     vdW  Elec       q    Type
REMARK                         _______ _______ _______ _____ _____    ______ ____
ROOT
ATOM      1  C   UNL     1      -6.257  13.594  -1.083  0.00  0.00    -0.061 A 
ATOM      2  C   UNL     1      -6.071  14.808  -1.737  0.00  0.00    -0.060 A 
ATOM      3  C   UNL     1      -4.810  15.184  -2.210  0.00  0.00    -0.038 A 
ATOM      4  C   UNL     1      -3.734  14.305  -2.001  0.00  0.00    +0.050 A 
ATOM      5  C   UNL     1      -3.906  13.059  -1.384  0.00  0.00    +0.009 A 
ATOM      6  C   UNL     1      -5.189  12.709  -0.911  0.00  0.00    -0.052 A 
ATOM      7  N   UNL     1      -2.392  14.423  -2.310  0.00  0.00    -0.342 N 
ATOM      8  C   UNL     1      -1.734  13.269  -1.966  0.00  0.00    +0.015 A 
ATOM      9  C   UNL     1      -2.641  12.392  -1.400  0.00  0.00    +0.020 A 
ENDROOT
BRANCH   9  10
ATOM     10  C   UNL     1      -2.342  11.057  -0.929  0.00  0.00    +0.055 C 
ATOM     11  N   UNL     1      -2.425  10.067  -1.759  0.00  0.00    -0.186 NA
BRANCH  11  12
ATOM     12  N   UNL     1      -2.145   8.836  -1.230  0.00  0.00    -0.191 N 
ATOM     13  C   UNL     1      -2.198   7.700  -1.995  0.00  0.00    +0.317 C 
ATOM     14  O   UNL     1      -1.998   6.579  -1.542  0.00  0.00    -0.251 OA
ATOM     15  N   UNL     1      -2.490   7.920  -3.301  0.00  0.00    -0.312 N 
ATOM     16  H   UNL     1      -1.900   8.765  -0.279  0.00  0.00    +0.000 HD
ATOM     17  H   UNL     1      -2.643   8.837  -3.623  0.00  0.00    +0.000 HD
ATOM     18  H   UNL     1      -2.547   7.162  -3.927  0.00  0.00    +0.000 HD
ENDBRANCH  11  12
ENDBRANCH   9  10
BRANCH   7  19
ATOM     19  C   UNL     1      -1.732  15.603  -2.869  0.00  0.00    +0.049 C 
BRANCH  19  20
ATOM     20  C   UNL     1      -0.760  16.288  -1.933  0.00  0.00    -0.021 A 
ATOM     21  C   UNL     1      -1.150  16.972  -0.779  0.00  0.00    -0.011 A 
ATOM     22  C   UNL     1      -0.229  17.680   0.015  0.00  0.00    +0.165 A 
ATOM     23  C   UNL     1       1.146  17.667  -0.320  0.00  0.00    +0.204 A 
ATOM     24  C   UNL     1       1.559  16.922  -1.446  0.00  0.00    +0.165 A 
ATOM     25  C   UNL     1       0.606  16.253  -2.234  0.00  0.00    -0.011 A 
BRANCH  22  26
ATOM     26  O   UNL     1      -0.632  18.391   1.118  0.00  0.00    -0.491 OA
ATOM     27  C   UNL     1      -2.024  18.506   1.387  0.00  0.00    +0.079 C 
ENDBRANCH  22  26
BRANCH  24  28
ATOM     28  O   UNL     1       2.828  16.735  -1.939  0.00  0.00    -0.491 OA
ATOM     29  C   UNL     1       3.294  17.549  -3.006  0.00  0.00    +0.079 C 
ENDBRANCH  24  28
BRANCH  23  30
ATOM     30  O   UNL     1       2.140  18.316   0.364  0.00  0.00    -0.488 OA
ATOM     31  C   UNL     1       2.459  19.669   0.082  0.00  0.00    +0.079 C 
ENDBRANCH  23  30
ENDBRANCH  19  20
ENDBRANCH   7  19
TORSDOF 7
ENDMDL
