MODEL 1
REMARK VINA RESULT:    -7.319      0.000      0.000
REMARK INTER + INTRA:         -10.405
REMARK INTER:                  -9.459
REMARK INTRA:                  -0.946
REMARK UNBOUND:                -0.946
REMARK  Name = 18c.sdf
REMARK  5 active torsions:
REMARK  status: ('A' for Active; 'I' for Inactive)
REMARK    1  A    between atoms: N_7  and  C_12
REMARK    2  A    between atoms: C_9  and  C_10
REMARK    3  A    between atoms: N_11  and  N_19
REMARK    4  A    between atoms: C_12  and  C_13
REMARK    5  A    between atoms: C_20  and  C_22
REMARK                            x       y       z     vdW  Elec       q    Type
REMARK                         _______ _______ _______ _____ _____    ______ ____
ROOT
ATOM      1  C   UNL     1      -7.619  13.444  -0.784  0.00  0.00    -0.061 A 
ATOM      2  C   UNL     1      -7.997  14.774  -0.920  0.00  0.00    -0.060 A 
ATOM      3  C   UNL     1      -7.043  15.796  -0.940  0.00  0.00    -0.038 A 
ATOM      4  C   UNL     1      -5.686  15.447  -0.822  0.00  0.00    +0.050 A 
ATOM      5  C   UNL     1      -5.279  14.109  -0.735  0.00  0.00    +0.009 A 
ATOM      6  C   UNL     1      -6.266  13.099  -0.702  0.00  0.00    -0.052 A 
ATOM      7  N   UNL     1      -4.540  16.220  -0.752  0.00  0.00    -0.342 N 
ATOM      8  C   UNL     1      -3.434  15.407  -0.713  0.00  0.00    +0.015 A 
ATOM      9  C   UNL     1      -3.850  14.090  -0.706  0.00  0.00    +0.020 A 
ENDROOT
BRANCH   9  10
ATOM     10  C   UNL     1      -2.990  12.926  -0.678  0.00  0.00    +0.055 C 
ATOM     11  N   UNL     1      -2.717  12.301  -1.775  0.00  0.00    -0.187 NA
BRANCH  11  12
ATOM     12  N   UNL     1      -1.910  11.202  -1.656  0.00  0.00    -0.203 N 
ATOM     13  C   UNL     1      -2.448   9.935  -1.817  0.00  0.00    +0.263 C 
ATOM     14  O   UNL     1      -3.625   9.697  -2.091  0.00  0.00    -0.268 OA
ATOM     15  H   UNL     1      -0.951  11.312  -1.457  0.00  0.00    +0.000 HD
BRANCH  13  16
ATOM     16  C   UNL     1      -1.495   8.798  -1.675  0.00  0.00    +0.038 A 
ATOM     17  C   UNL     1      -0.108   8.960  -1.799  0.00  0.00    -0.050 A 
ATOM     18  C   UNL     1       0.742   7.859  -1.652  0.00  0.00    -0.061 A 
ATOM     19  C   UNL     1       0.212   6.598  -1.375  0.00  0.00    -0.062 A 
ATOM     20  C   UNL     1      -1.165   6.434  -1.232  0.00  0.00    -0.061 A 
ATOM     21  C   UNL     1      -2.016   7.531  -1.376  0.00  0.00    -0.050 A 
ENDBRANCH  13  16
ENDBRANCH  11  12
ENDBRANCH   9  10
BRANCH   7  22
ATOM     22  C   UNL     1      -4.479  17.675  -0.616  0.00  0.00    +0.048 C 
BRANCH  22  23
ATOM     23  C   UNL     1      -4.670  18.370  -1.941  0.00  0.00    -0.028 A 
ATOM     24  C   UNL     1      -3.646  18.369  -2.899  0.00  0.00    -0.055 A 
ATOM     25  C   UNL     1      -3.769  19.119  -4.070  0.00  0.00    -0.043 A 
ATOM     26  C   UNL     1      -4.924  19.862  -4.298  0.00  0.00    +0.041 A 
ATOM     27  C   UNL     1      -5.977  19.824  -3.387  0.00  0.00    -0.043 A 
ATOM     28  C   UNL     1      -5.852  19.078  -2.212  0.00  0.00    -0.055 A 
ATOM     29 CL   UNL     1      -5.037  20.855  -5.698  0.00  0.00    -0.084 Cl
ENDBRANCH  22  23
ENDBRANCH   7  22
TORSDOF 5
ENDMDL
