MODEL 1
REMARK VINA RESULT:    -5.993      0.000      0.000
REMARK INTER + INTRA:          -7.685
REMARK INTER:                  -7.044
REMARK INTRA:                  -0.641
REMARK UNBOUND:                -0.641
REMARK  Name = 1a.sdf
REMARK  3 active torsions:
REMARK  status: ('A' for Active; 'I' for Inactive)
REMARK    1  A    between atoms: N_7  and  C_12
REMARK    2  A    between atoms: C_9  and  C_10
REMARK    3  A    between atoms: C_12  and  C_13
REMARK                            x       y       z     vdW  Elec       q    Type
REMARK                         _______ _______ _______ _____ _____    ______ ____
ROOT
ATOM      1  C   UNL     1      -1.534  17.073  -5.594  0.00  0.00    -0.061 A 
ATOM      2  C   UNL     1      -2.715  16.721  -4.952  0.00  0.00    -0.060 A 
ATOM      3  C   UNL     1      -2.725  16.404  -3.590  0.00  0.00    -0.038 A 
ATOM      4  C   UNL     1      -1.513  16.460  -2.882  0.00  0.00    +0.050 A 
ATOM      5  C   UNL     1      -0.319  16.854  -3.499  0.00  0.00    +0.010 A 
ATOM      6  C   UNL     1      -0.335  17.151  -4.880  0.00  0.00    -0.052 A 
ATOM      7  N   UNL     1      -1.208  16.165  -1.564  0.00  0.00    -0.342 N 
ATOM      8  C   UNL     1       0.117  16.432  -1.324  0.00  0.00    +0.016 A 
ATOM      9  C   UNL     1       0.702  16.857  -2.499  0.00  0.00    +0.039 A 
ENDROOT
BRANCH   9  10
ATOM     10  C   UNL     1       2.096  17.227  -2.651  0.00  0.00    +0.152 C 
ATOM     11  O   UNL     1       2.991  16.869  -1.892  0.00  0.00    -0.296 OA
ENDBRANCH   9  10
BRANCH   7  12
ATOM     12  C   UNL     1      -2.101  15.550  -0.584  0.00  0.00    +0.048 C 
BRANCH  12  13
ATOM     13  C   UNL     1      -2.124  14.048  -0.714  0.00  0.00    -0.028 A 
ATOM     14  C   UNL     1      -1.066  13.275  -0.211  0.00  0.00    -0.056 A 
ATOM     15  C   UNL     1      -1.033  11.895  -0.422  0.00  0.00    -0.047 A 
ATOM     16  C   UNL     1      -2.064  11.279  -1.126  0.00  0.00    +0.018 A 
ATOM     17  C   UNL     1      -3.147  12.022  -1.588  0.00  0.00    -0.047 A 
ATOM     18  C   UNL     1      -3.177  13.404  -1.380  0.00  0.00    -0.056 A 
ATOM     19 BR   UNL     1      -1.974   9.425  -1.486  0.00  0.00    -0.050 Br
ENDBRANCH  12  13
ENDBRANCH   7  12
TORSDOF 3
ENDMDL
