MODEL 1
REMARK VINA RESULT:    -6.113      0.000      0.000
REMARK INTER + INTRA:          -7.744
REMARK INTER:                  -7.185
REMARK INTRA:                  -0.559
REMARK UNBOUND:                -0.559
REMARK  Name = 1c.sdf
REMARK  3 active torsions:
REMARK  status: ('A' for Active; 'I' for Inactive)
REMARK    1  A    between atoms: N_7  and  C_12
REMARK    2  A    between atoms: C_9  and  C_10
REMARK    3  A    between atoms: C_12  and  C_13
REMARK                            x       y       z     vdW  Elec       q    Type
REMARK                         _______ _______ _______ _____ _____    ______ ____
ROOT
ATOM      1  C   UNL     1      -6.721  12.722  -0.866  0.00  0.00    -0.061 A 
ATOM      2  C   UNL     1      -6.637  14.075  -1.180  0.00  0.00    -0.060 A 
ATOM      3  C   UNL     1      -5.409  14.675  -1.498  0.00  0.00    -0.038 A 
ATOM      4  C   UNL     1      -4.245  13.886  -1.464  0.00  0.00    +0.050 A 
ATOM      5  C   UNL     1      -4.320  12.506  -1.212  0.00  0.00    +0.010 A 
ATOM      6  C   UNL     1      -5.573  11.928  -0.906  0.00  0.00    -0.052 A 
ATOM      7  N   UNL     1      -2.899  14.193  -1.622  0.00  0.00    -0.342 N 
ATOM      8  C   UNL     1      -2.160  13.033  -1.581  0.00  0.00    +0.016 A 
ATOM      9  C   UNL     1      -3.009  11.975  -1.336  0.00  0.00    +0.039 A 
ENDROOT
BRANCH   9  10
ATOM     10  C   UNL     1      -2.602  10.585  -1.217  0.00  0.00    +0.152 C 
ATOM     11  O   UNL     1      -1.499  10.168  -1.546  0.00  0.00    -0.296 OA
ENDBRANCH   9  10
BRANCH   7  12
ATOM     12  C   UNL     1      -2.276  15.520  -1.657  0.00  0.00    +0.048 C 
BRANCH  12  13
ATOM     13  C   UNL     1      -1.931  15.954  -3.061  0.00  0.00    -0.028 A 
ATOM     14  C   UNL     1      -0.646  16.433  -3.351  0.00  0.00    -0.055 A 
ATOM     15  C   UNL     1      -0.376  17.038  -4.579  0.00  0.00    -0.043 A 
ATOM     16  C   UNL     1      -1.379  17.130  -5.541  0.00  0.00    +0.041 A 
ATOM     17  C   UNL     1      -2.626  16.554  -5.315  0.00  0.00    -0.043 A 
ATOM     18  C   UNL     1      -2.901  15.962  -4.077  0.00  0.00    -0.055 A 
ATOM     19 CL   UNL     1      -1.093  18.014  -6.989  0.00  0.00    -0.084 Cl
ENDBRANCH  12  13
ENDBRANCH   7  12
TORSDOF 3
ENDMDL
