MODEL 1
REMARK VINA RESULT:    -7.779      0.000      0.000
REMARK INTER + INTRA:          -9.723
REMARK INTER:                  -9.598
REMARK INTRA:                  -0.125
REMARK UNBOUND:                -0.125
REMARK  Name = 20.sdf
REMARK  4 active torsions:
REMARK  status: ('A' for Active; 'I' for Inactive)
REMARK    1  A    between atoms: C_9  and  C_10
REMARK    2  A    between atoms: C_10  and  O_11
REMARK    3  A    between atoms: O_11  and  C_12
REMARK    4  A    between atoms: N_13  and  C_15
REMARK                            x       y       z     vdW  Elec       q    Type
REMARK                         _______ _______ _______ _____ _____    ______ ____
ROOT
ATOM      1  C   UNL     1      -3.073  10.643  -1.355  0.00  0.00    +0.121 C 
ENDROOT
BRANCH   1  10
ATOM      2  C   UNL     1      -2.861  14.899  -3.353  0.00  0.00    -0.061 A 
ATOM      3  C   UNL     1      -1.749  15.628  -2.941  0.00  0.00    -0.060 A 
ATOM      4  C   UNL     1      -0.827  15.085  -2.042  0.00  0.00    -0.038 A 
ATOM      5  C   UNL     1      -1.071  13.790  -1.564  0.00  0.00    +0.047 A 
ATOM      6  C   UNL     1      -2.181  13.036  -1.949  0.00  0.00    +0.006 A 
ATOM      7  C   UNL     1      -3.088  13.606  -2.867  0.00  0.00    -0.052 A 
ATOM      8  N   UNL     1      -0.344  13.023  -0.685  0.00  0.00    -0.360 N 
ATOM      9  C   UNL     1      -0.954  11.814  -0.496  0.00  0.00    +0.009 A 
ATOM     10  C   UNL     1      -2.107  11.781  -1.260  0.00  0.00    +0.015 A 
ATOM     11  H   UNL     1       0.495  13.304  -0.253  0.00  0.00    +0.000 HD
ENDBRANCH   1  10
BRANCH   1  12
ATOM     12  O   UNL     1      -2.742   9.767  -2.445  0.00  0.00    -0.445 OA
BRANCH  12  13
ATOM     13  C   UNL     1      -3.422   8.603  -2.521  0.00  0.00    +0.405 C 
ATOM     14  N   UNL     1      -2.712   7.476  -2.196  0.00  0.00    -0.251 N 
ATOM     15  O   UNL     1      -4.588   8.498  -2.892  0.00  0.00    -0.226 OA
ATOM     16  H   UNL     1      -3.250   6.651  -2.198  0.00  0.00    +0.000 HD
BRANCH  14  17
ATOM     17  C   UNL     1      -1.360   7.275  -1.857  0.00  0.00    +0.036 A 
ATOM     18  C   UNL     1      -0.903   6.388  -0.882  0.00  0.00    -0.040 A 
ATOM     19  C   UNL     1       0.456   6.327  -0.554  0.00  0.00    -0.060 A 
ATOM     20  C   UNL     1       1.375   7.144  -1.207  0.00  0.00    -0.062 A 
ATOM     21  C   UNL     1       0.941   8.000  -2.213  0.00  0.00    -0.060 A 
ATOM     22  C   UNL     1      -0.418   8.059  -2.540  0.00  0.00    -0.040 A 
ENDBRANCH  14  17
ENDBRANCH  12  13
ENDBRANCH   1  12
TORSDOF 4
ENDMDL
