MODEL 1
REMARK VINA RESULT:    -6.672      0.000      0.000
REMARK INTER + INTRA:         -10.496
REMARK INTER:                  -9.402
REMARK INTRA:                  -1.094
REMARK UNBOUND:                -1.094
REMARK  Name = 23a.sdf
REMARK  9 active torsions:
REMARK  status: ('A' for Active; 'I' for Inactive)
REMARK    1  A    between atoms: N_7  and  C_12
REMARK    2  A    between atoms: C_9  and  C_10
REMARK    3  A    between atoms: N_11  and  N_19
REMARK    4  A    between atoms: C_12  and  C_13
REMARK    5  A    between atoms: C_20  and  C_22
REMARK    6  A    between atoms: C_24  and  O_30
REMARK    7  A    between atoms: C_25  and  O_29
REMARK    8  A    between atoms: O_29  and  C_32
REMARK    9  A    between atoms: O_30  and  C_31
REMARK                            x       y       z     vdW  Elec       q    Type
REMARK                         _______ _______ _______ _____ _____    ______ ____
ROOT
ATOM      1  C   UNL     1      -1.961  11.271  -0.954  0.00  0.00    -0.061 A 
ATOM      2  C   UNL     1      -0.847  11.975  -0.530  0.00  0.00    -0.060 A 
ATOM      3  C   UNL     1      -0.904  13.364  -0.360  0.00  0.00    -0.038 A 
ATOM      4  C   UNL     1      -2.065  14.067  -0.740  0.00  0.00    +0.050 A 
ATOM      5  C   UNL     1      -3.218  13.363  -1.131  0.00  0.00    +0.009 A 
ATOM      6  C   UNL     1      -3.159  11.946  -1.212  0.00  0.00    -0.052 A 
ATOM      7  N   UNL     1      -2.359  15.423  -0.815  0.00  0.00    -0.342 N 
ATOM      8  C   UNL     1      -3.687  15.567  -1.163  0.00  0.00    +0.015 A 
ATOM      9  C   UNL     1      -4.264  14.322  -1.335  0.00  0.00    +0.020 A 
ENDROOT
BRANCH   9  10
ATOM     10  C   UNL     1      -5.655  14.044  -1.651  0.00  0.00    +0.055 C 
ATOM     11  N   UNL     1      -6.436  13.511  -0.756  0.00  0.00    -0.187 NA
BRANCH  11  12
ATOM     12  N   UNL     1      -7.731  13.258  -1.129  0.00  0.00    -0.203 N 
ATOM     13  C   UNL     1      -8.755  14.029  -0.604  0.00  0.00    +0.263 C 
ATOM     14  O   UNL     1      -8.598  14.960   0.201  0.00  0.00    -0.268 OA
ATOM     15  H   UNL     1      -7.931  12.534  -1.765  0.00  0.00    +0.000 HD
BRANCH  13  16
ATOM     16  C   UNL     1     -10.134  13.737  -1.082  0.00  0.00    +0.042 A 
ATOM     17  C   UNL     1     -11.259  13.978  -0.285  0.00  0.00    -0.004 A 
ATOM     18  C   UNL     1     -12.537  13.613  -0.734  0.00  0.00    +0.162 A 
ATOM     19  C   UNL     1     -12.699  13.053  -2.021  0.00  0.00    +0.162 A 
ATOM     20  C   UNL     1     -11.582  12.898  -2.846  0.00  0.00    -0.016 A 
ATOM     21  C   UNL     1     -10.307  13.224  -2.373  0.00  0.00    -0.046 A 
BRANCH  19  22
ATOM     22  O   UNL     1     -13.976  12.692  -2.376  0.00  0.00    -0.491 OA
ATOM     23  C   UNL     1     -14.225  11.316  -2.638  0.00  0.00    +0.079 C 
ENDBRANCH  19  22
BRANCH  18  24
ATOM     24  O   UNL     1     -13.681  13.763   0.013  0.00  0.00    -0.491 OA
ATOM     25  C   UNL     1     -13.745  13.081   1.258  0.00  0.00    +0.079 C 
ENDBRANCH  18  24
ENDBRANCH  13  16
ENDBRANCH  11  12
ENDBRANCH   9  10
BRANCH   7  26
ATOM     26  C   UNL     1      -1.442  16.578  -0.721  0.00  0.00    +0.048 C 
BRANCH  26  27
ATOM     27  C   UNL     1      -0.252  16.499  -1.656  0.00  0.00    -0.028 A 
ATOM     28  C   UNL     1       1.056  16.511  -1.143  0.00  0.00    -0.056 A 
ATOM     29  C   UNL     1       2.143  16.762  -1.986  0.00  0.00    -0.047 A 
ATOM     30  C   UNL     1       1.937  16.910  -3.355  0.00  0.00    +0.018 A 
ATOM     31  C   UNL     1       0.667  16.733  -3.900  0.00  0.00    -0.047 A 
ATOM     32  C   UNL     1      -0.427  16.534  -3.052  0.00  0.00    -0.056 A 
ATOM     33 BR   UNL     1       3.360  17.478  -4.464  0.00  0.00    -0.050 Br
ENDBRANCH  26  27
ENDBRANCH   7  26
TORSDOF 7
ENDMDL
