MODEL 1
REMARK VINA RESULT:    -6.499      0.000      0.000
REMARK INTER + INTRA:         -10.233
REMARK INTER:                  -9.158
REMARK INTRA:                  -1.075
REMARK UNBOUND:                -1.075
REMARK  Name = 23c.sdf
REMARK  9 active torsions:
REMARK  status: ('A' for Active; 'I' for Inactive)
REMARK    1  A    between atoms: N_7  and  C_12
REMARK    2  A    between atoms: C_9  and  C_10
REMARK    3  A    between atoms: N_11  and  N_19
REMARK    4  A    between atoms: C_12  and  C_13
REMARK    5  A    between atoms: C_20  and  C_22
REMARK    6  A    between atoms: C_24  and  O_30
REMARK    7  A    between atoms: C_25  and  O_29
REMARK    8  A    between atoms: O_29  and  C_32
REMARK    9  A    between atoms: O_30  and  C_31
REMARK                            x       y       z     vdW  Elec       q    Type
REMARK                         _______ _______ _______ _____ _____    ______ ____
ROOT
ATOM      1  C   UNL     1      -2.367  11.215  -1.018  0.00  0.00    -0.061 A 
ATOM      2  C   UNL     1      -1.314  12.087  -0.776  0.00  0.00    -0.060 A 
ATOM      3  C   UNL     1      -1.512  13.472  -0.782  0.00  0.00    -0.038 A 
ATOM      4  C   UNL     1      -2.806  13.961  -1.032  0.00  0.00    +0.050 A 
ATOM      5  C   UNL     1      -3.891  13.097  -1.235  0.00  0.00    +0.009 A 
ATOM      6  C   UNL     1      -3.658  11.704  -1.240  0.00  0.00    -0.052 A 
ATOM      7  N   UNL     1      -3.292  15.251  -1.143  0.00  0.00    -0.342 N 
ATOM      8  C   UNL     1      -4.651  15.220  -1.336  0.00  0.00    +0.015 A 
ATOM      9  C   UNL     1      -5.064  13.903  -1.391  0.00  0.00    +0.020 A 
ENDROOT
BRANCH   9  10
ATOM     10  C   UNL     1      -6.425  13.446  -1.571  0.00  0.00    +0.055 C 
ATOM     11  N   UNL     1      -7.246  13.460  -0.572  0.00  0.00    -0.187 NA
BRANCH  11  12
ATOM     12  N   UNL     1      -8.512  13.004  -0.830  0.00  0.00    -0.203 N 
ATOM     13  C   UNL     1      -9.552  13.914  -0.961  0.00  0.00    +0.263 C 
ATOM     14  O   UNL     1      -9.439  15.135  -0.884  0.00  0.00    -0.268 OA
ATOM     15  H   UNL     1      -8.683  12.039  -0.922  0.00  0.00    +0.000 HD
BRANCH  13  16
ATOM     16  C   UNL     1     -10.890  13.334  -1.269  0.00  0.00    +0.042 A 
ATOM     17  C   UNL     1     -11.762  12.896  -0.263  0.00  0.00    -0.004 A 
ATOM     18  C   UNL     1     -12.997  12.327  -0.602  0.00  0.00    +0.162 A 
ATOM     19  C   UNL     1     -13.373  12.216  -1.958  0.00  0.00    +0.162 A 
ATOM     20  C   UNL     1     -12.515  12.696  -2.953  0.00  0.00    -0.016 A 
ATOM     21  C   UNL     1     -11.280  13.250  -2.609  0.00  0.00    -0.046 A 
BRANCH  19  22
ATOM     22  O   UNL     1     -14.590  11.629  -2.201  0.00  0.00    -0.491 OA
ATOM     23  C   UNL     1     -14.597  10.362  -2.844  0.00  0.00    +0.079 C 
ENDBRANCH  19  22
BRANCH  18  24
ATOM     24  O   UNL     1     -13.902  11.845   0.312  0.00  0.00    -0.491 OA
ATOM     25  C   UNL     1     -13.543  10.698   1.068  0.00  0.00    +0.079 C 
ENDBRANCH  18  24
ENDBRANCH  13  16
ENDBRANCH  11  12
ENDBRANCH   9  10
BRANCH   7  26
ATOM     26  C   UNL     1      -2.496  16.477  -1.162  0.00  0.00    +0.048 C 
BRANCH  26  27
ATOM     27  C   UNL     1      -2.138  16.886  -2.569  0.00  0.00    -0.028 A 
ATOM     28  C   UNL     1      -3.056  17.588  -3.364  0.00  0.00    -0.055 A 
ATOM     29  C   UNL     1      -2.768  17.866  -4.702  0.00  0.00    -0.043 A 
ATOM     30  C   UNL     1      -1.555  17.457  -5.249  0.00  0.00    +0.041 A 
ATOM     31  C   UNL     1      -0.611  16.804  -4.460  0.00  0.00    -0.043 A 
ATOM     32  C   UNL     1      -0.901  16.521  -3.123  0.00  0.00    -0.055 A 
ATOM     33 CL   UNL     1      -1.232  17.739  -6.915  0.00  0.00    -0.084 Cl
ENDBRANCH  26  27
ENDBRANCH   7  26
TORSDOF 7
ENDMDL
