MODEL 1
REMARK VINA RESULT:    -7.792      0.000      0.000
REMARK INTER + INTRA:         -10.560
REMARK INTER:                 -10.298
REMARK INTRA:                  -0.262
REMARK UNBOUND:                -0.262
REMARK  Name = 24a.sdf
REMARK  6 active torsions:
REMARK  status: ('A' for Active; 'I' for Inactive)
REMARK    1  A    between atoms: N_7  and  C_10
REMARK    2  A    between atoms: C_9  and  C_18
REMARK    3  A    between atoms: C_10  and  C_11
REMARK    4  A    between atoms: N_19  and  N_20
REMARK    5  A    between atoms: C_21  and  C_23
REMARK    6  A    between atoms: C_26  and  O_29
REMARK                            x       y       z     vdW  Elec       q    Type
REMARK                         _______ _______ _______ _____ _____    ______ ____
ROOT
ATOM      1  C   UNL     1      -6.342  14.616  -0.398  0.00  0.00    -0.061 A 
ATOM      2  C   UNL     1      -6.692  15.806  -1.017  0.00  0.00    -0.060 A 
ATOM      3  C   UNL     1      -5.780  16.500  -1.829  0.00  0.00    -0.038 A 
ATOM      4  C   UNL     1      -4.471  15.981  -1.970  0.00  0.00    +0.050 A 
ATOM      5  C   UNL     1      -4.125  14.748  -1.401  0.00  0.00    +0.009 A 
ATOM      6  C   UNL     1      -5.077  14.064  -0.606  0.00  0.00    -0.052 A 
ATOM      7  N   UNL     1      -3.340  16.479  -2.594  0.00  0.00    -0.342 N 
ATOM      8  C   UNL     1      -2.335  15.538  -2.515  0.00  0.00    +0.015 A 
ATOM      9  C   UNL     1      -2.788  14.443  -1.807  0.00  0.00    +0.020 A 
ENDROOT
BRANCH   9  10
ATOM     10  C   UNL     1      -2.042  13.229  -1.537  0.00  0.00    +0.055 C 
ATOM     11  N   UNL     1      -2.498  12.083  -1.928  0.00  0.00    -0.187 NA
BRANCH  11  12
ATOM     12  N   UNL     1      -1.738  10.991  -1.606  0.00  0.00    -0.203 N 
ATOM     13  C   UNL     1      -2.142   9.727  -2.018  0.00  0.00    +0.263 C 
ATOM     14  O   UNL     1      -3.156   9.494  -2.679  0.00  0.00    -0.268 OA
ATOM     15  H   UNL     1      -0.909  11.102  -1.087  0.00  0.00    +0.000 HD
BRANCH  13  16
ATOM     16  C   UNL     1      -1.250   8.590  -1.655  0.00  0.00    +0.039 A 
ATOM     17  C   UNL     1      -1.746   7.334  -1.278  0.00  0.00    -0.046 A 
ATOM     18  C   UNL     1      -0.866   6.307  -0.919  0.00  0.00    -0.019 A 
ATOM     19  C   UNL     1       0.508   6.537  -0.949  0.00  0.00    +0.117 A 
ATOM     20  C   UNL     1       1.017   7.762  -1.361  0.00  0.00    -0.019 A 
ATOM     21  C   UNL     1       0.138   8.788  -1.716  0.00  0.00    -0.046 A 
BRANCH  19  22
ATOM     22  O   UNL     1       1.399   5.574  -0.580  0.00  0.00    -0.507 OA
ATOM     23  H   UNL     1       1.115   4.685  -0.485  0.00  0.00    +0.000 HD
ENDBRANCH  19  22
ENDBRANCH  13  16
ENDBRANCH  11  12
ENDBRANCH   9  10
BRANCH   7  24
ATOM     24  C   UNL     1      -3.126  17.824  -3.139  0.00  0.00    +0.048 C 
BRANCH  24  25
ATOM     25  C   UNL     1      -1.869  17.923  -3.973  0.00  0.00    -0.028 A 
ATOM     26  C   UNL     1      -0.608  17.888  -3.361  0.00  0.00    -0.056 A 
ATOM     27  C   UNL     1       0.542  18.199  -4.089  0.00  0.00    -0.047 A 
ATOM     28  C   UNL     1       0.441  18.505  -5.445  0.00  0.00    +0.018 A 
ATOM     29  C   UNL     1      -0.787  18.420  -6.096  0.00  0.00    -0.047 A 
ATOM     30  C   UNL     1      -1.940  18.126  -5.361  0.00  0.00    -0.056 A 
ATOM     31 BR   UNL     1       1.961  19.123  -6.381  0.00  0.00    -0.050 Br
ENDBRANCH  24  25
ENDBRANCH   7  24
TORSDOF 6
ENDMDL
