MODEL 1
REMARK VINA RESULT:    -7.539      0.000      0.000
REMARK INTER + INTRA:         -11.140
REMARK INTER:                 -10.184
REMARK INTRA:                  -0.956
REMARK UNBOUND:                -0.956
REMARK  Name = 25a.sdf
REMARK  7 active torsions:
REMARK  status: ('A' for Active; 'I' for Inactive)
REMARK    1  A    between atoms: N_7  and  C_10
REMARK    2  A    between atoms: C_9  and  C_18
REMARK    3  A    between atoms: C_10  and  C_11
REMARK    4  A    between atoms: N_19  and  N_20
REMARK    5  A    between atoms: C_21  and  C_23
REMARK    6  A    between atoms: C_25  and  O_29
REMARK    7  A    between atoms: C_27  and  O_30
REMARK                            x       y       z     vdW  Elec       q    Type
REMARK                         _______ _______ _______ _____ _____    ______ ____
ROOT
ATOM      1  C   UNL     1      -2.466  17.191  -5.931  0.00  0.00    -0.061 A 
ATOM      2  C   UNL     1      -2.565  18.468  -5.393  0.00  0.00    -0.060 A 
ATOM      3  C   UNL     1      -2.935  18.664  -4.055  0.00  0.00    -0.038 A 
ATOM      4  C   UNL     1      -3.232  17.537  -3.267  0.00  0.00    +0.050 A 
ATOM      5  C   UNL     1      -3.076  16.238  -3.774  0.00  0.00    +0.009 A 
ATOM      6  C   UNL     1      -2.694  16.072  -5.126  0.00  0.00    -0.052 A 
ATOM      7  N   UNL     1      -3.709  17.408  -1.971  0.00  0.00    -0.342 N 
ATOM      8  C   UNL     1      -3.755  16.077  -1.633  0.00  0.00    +0.015 A 
ATOM      9  C   UNL     1      -3.354  15.318  -2.715  0.00  0.00    +0.020 A 
ENDROOT
BRANCH   9  10
ATOM     10  C   UNL     1      -3.251  13.870  -2.752  0.00  0.00    +0.055 C 
ATOM     11  N   UNL     1      -2.561  13.250  -1.849  0.00  0.00    -0.187 NA
BRANCH  11  12
ATOM     12  N   UNL     1      -2.511  11.883  -1.962  0.00  0.00    -0.203 N 
ATOM     13  C   UNL     1      -1.469  11.184  -1.356  0.00  0.00    +0.263 C 
ATOM     14  O   UNL     1      -0.540  11.683  -0.737  0.00  0.00    -0.268 OA
ATOM     15  H   UNL     1      -3.205  11.401  -2.467  0.00  0.00    +0.000 HD
BRANCH  13  16
ATOM     16  C   UNL     1      -1.515   9.697  -1.501  0.00  0.00    +0.045 A 
ATOM     17  C   UNL     1      -0.309   8.979  -1.602  0.00  0.00    -0.008 A 
ATOM     18  C   UNL     1      -0.348   7.588  -1.692  0.00  0.00    +0.121 A 
ATOM     19  C   UNL     1      -1.562   6.902  -1.679  0.00  0.00    +0.021 A 
ATOM     20  C   UNL     1      -2.744   7.625  -1.569  0.00  0.00    +0.121 A 
ATOM     21  C   UNL     1      -2.731   9.012  -1.478  0.00  0.00    -0.008 A 
BRANCH  18  22
ATOM     22  O   UNL     1       0.786   6.835  -1.781  0.00  0.00    -0.507 OA
ATOM     23  H   UNL     1       0.942   6.313  -2.543  0.00  0.00    +0.000 HD
ENDBRANCH  18  22
BRANCH  20  24
ATOM     24  O   UNL     1      -3.960   7.010  -1.531  0.00  0.00    -0.507 OA
ATOM     25  H   UNL     1      -4.062   6.152  -1.893  0.00  0.00    +0.000 HD
ENDBRANCH  20  24
ENDBRANCH  13  16
ENDBRANCH  11  12
ENDBRANCH   9  10
BRANCH   7  26
ATOM     26  C   UNL     1      -4.250  18.469  -1.111  0.00  0.00    +0.048 C 
BRANCH  26  27
ATOM     27  C   UNL     1      -5.704  18.754  -1.401  0.00  0.00    -0.028 A 
ATOM     28  C   UNL     1      -6.709  17.992  -0.788  0.00  0.00    -0.056 A 
ATOM     29  C   UNL     1      -8.036  18.105  -1.203  0.00  0.00    -0.047 A 
ATOM     30  C   UNL     1      -8.371  19.006  -2.210  0.00  0.00    +0.018 A 
ATOM     31  C   UNL     1      -7.406  19.855  -2.747  0.00  0.00    -0.047 A 
ATOM     32  C   UNL     1      -6.074  19.730  -2.341  0.00  0.00    -0.056 A 
ATOM     33 BR   UNL     1     -10.130  19.026  -2.903  0.00  0.00    -0.050 Br
ENDBRANCH  26  27
ENDBRANCH   7  26
TORSDOF 7
ENDMDL
