MODEL 1
REMARK VINA RESULT:    -7.439      0.000      0.000
REMARK INTER + INTRA:         -11.019
REMARK INTER:                 -10.048
REMARK INTRA:                  -0.971
REMARK UNBOUND:                -0.971
REMARK  Name = 25c.sdf
REMARK  7 active torsions:
REMARK  status: ('A' for Active; 'I' for Inactive)
REMARK    1  A    between atoms: N_7  and  C_10
REMARK    2  A    between atoms: C_9  and  C_18
REMARK    3  A    between atoms: C_10  and  C_11
REMARK    4  A    between atoms: N_19  and  N_20
REMARK    5  A    between atoms: C_21  and  C_23
REMARK    6  A    between atoms: C_25  and  O_29
REMARK    7  A    between atoms: C_27  and  O_30
REMARK                            x       y       z     vdW  Elec       q    Type
REMARK                         _______ _______ _______ _____ _____    ______ ____
ROOT
ATOM      1  C   UNL     1      -2.358  17.193  -5.950  0.00  0.00    -0.061 A 
ATOM      2  C   UNL     1      -2.483  18.467  -5.409  0.00  0.00    -0.060 A 
ATOM      3  C   UNL     1      -2.855  18.652  -4.070  0.00  0.00    -0.038 A 
ATOM      4  C   UNL     1      -3.134  17.518  -3.285  0.00  0.00    +0.050 A 
ATOM      5  C   UNL     1      -2.948  16.222  -3.798  0.00  0.00    +0.009 A 
ATOM      6  C   UNL     1      -2.561  16.068  -5.149  0.00  0.00    -0.052 A 
ATOM      7  N   UNL     1      -3.610  17.374  -1.991  0.00  0.00    -0.342 N 
ATOM      8  C   UNL     1      -3.631  16.039  -1.660  0.00  0.00    +0.015 A 
ATOM      9  C   UNL     1      -3.204  15.295  -2.743  0.00  0.00    +0.020 A 
ENDROOT
BRANCH   9  10
ATOM     10  C   UNL     1      -3.059  13.853  -2.783  0.00  0.00    +0.055 C 
ATOM     11  N   UNL     1      -2.578  13.225  -1.761  0.00  0.00    -0.187 NA
BRANCH  11  12
ATOM     12  N   UNL     1      -2.463  11.861  -1.876  0.00  0.00    -0.203 N 
ATOM     13  C   UNL     1      -1.378  11.208  -1.295  0.00  0.00    +0.263 C 
ATOM     14  O   UNL     1      -0.460  11.750  -0.685  0.00  0.00    -0.268 OA
ATOM     15  H   UNL     1      -3.143  11.348  -2.369  0.00  0.00    +0.000 HD
BRANCH  13  16
ATOM     16  C   UNL     1      -1.345   9.725  -1.449  0.00  0.00    +0.045 A 
ATOM     17  C   UNL     1      -2.545   8.993  -1.481  0.00  0.00    -0.008 A 
ATOM     18  C   UNL     1      -2.500   7.611  -1.679  0.00  0.00    +0.121 A 
ATOM     19  C   UNL     1      -1.289   6.949  -1.845  0.00  0.00    +0.021 A 
ATOM     20  C   UNL     1      -0.109   7.677  -1.822  0.00  0.00    +0.121 A 
ATOM     21  C   UNL     1      -0.131   9.056  -1.633  0.00  0.00    -0.008 A 
BRANCH  18  22
ATOM     22  O   UNL     1      -3.634   6.853  -1.727  0.00  0.00    -0.507 OA
ATOM     23  H   UNL     1      -4.376   7.086  -1.204  0.00  0.00    +0.000 HD
ENDBRANCH  18  22
BRANCH  20  24
ATOM     24  O   UNL     1       1.107   7.104  -1.991  0.00  0.00    -0.507 OA
ATOM     25  H   UNL     1       1.412   6.897  -2.852  0.00  0.00    +0.000 HD
ENDBRANCH  20  24
ENDBRANCH  13  16
ENDBRANCH  11  12
ENDBRANCH   9  10
BRANCH   7  26
ATOM     26  C   UNL     1      -4.173  18.418  -1.124  0.00  0.00    +0.048 C 
BRANCH  26  27
ATOM     27  C   UNL     1      -5.624  18.699  -1.432  0.00  0.00    -0.028 A 
ATOM     28  C   UNL     1      -6.633  17.905  -0.867  0.00  0.00    -0.055 A 
ATOM     29  C   UNL     1      -7.951  18.011  -1.312  0.00  0.00    -0.043 A 
ATOM     30  C   UNL     1      -8.278  18.943  -2.294  0.00  0.00    +0.041 A 
ATOM     31  C   UNL     1      -7.312  19.821  -2.778  0.00  0.00    -0.043 A 
ATOM     32  C   UNL     1      -5.987  19.702  -2.346  0.00  0.00    -0.055 A 
ATOM     33 CL   UNL     1      -9.867  18.965  -2.953  0.00  0.00    -0.084 Cl
ENDBRANCH  26  27
ENDBRANCH   7  26
TORSDOF 7
ENDMDL
