MODEL 1
REMARK VINA RESULT:    -7.119      0.000      0.000
REMARK INTER + INTRA:         -10.344
REMARK INTER:                  -9.408
REMARK INTRA:                  -0.936
REMARK UNBOUND:                -0.936
REMARK  Name = 27a.sdf
REMARK  6 active torsions:
REMARK  status: ('A' for Active; 'I' for Inactive)
REMARK    1  A    between atoms: N_7  and  C_10
REMARK    2  A    between atoms: C_9  and  C_18
REMARK    3  A    between atoms: C_10  and  C_11
REMARK    4  A    between atoms: N_19  and  N_20
REMARK    5  A    between atoms: C_21  and  C_23
REMARK    6  A    between atoms: C_26  and  N_29
REMARK                            x       y       z     vdW  Elec       q    Type
REMARK                         _______ _______ _______ _____ _____    ______ ____
ROOT
ATOM      1  C   UNL     1      -2.012  18.044  -5.905  0.00  0.00    -0.061 A 
ATOM      2  C   UNL     1      -2.437  19.265  -5.395  0.00  0.00    -0.060 A 
ATOM      3  C   UNL     1      -3.093  19.339  -4.162  0.00  0.00    -0.038 A 
ATOM      4  C   UNL     1      -3.307  18.151  -3.444  0.00  0.00    +0.050 A 
ATOM      5  C   UNL     1      -2.846  16.915  -3.917  0.00  0.00    +0.009 A 
ATOM      6  C   UNL     1      -2.202  16.868  -5.174  0.00  0.00    -0.052 A 
ATOM      7  N   UNL     1      -3.953  17.907  -2.246  0.00  0.00    -0.342 N 
ATOM      8  C   UNL     1      -3.841  16.577  -1.923  0.00  0.00    +0.015 A 
ATOM      9  C   UNL     1      -3.154  15.928  -2.928  0.00  0.00    +0.020 A 
ENDROOT
BRANCH   9  10
ATOM     10  C   UNL     1      -2.816  14.520  -2.962  0.00  0.00    +0.055 C 
ATOM     11  N   UNL     1      -2.280  13.959  -1.928  0.00  0.00    -0.187 NA
BRANCH  11  12
ATOM     12  N   UNL     1      -1.982  12.632  -2.052  0.00  0.00    -0.203 N 
ATOM     13  C   UNL     1      -2.858  11.685  -1.534  0.00  0.00    +0.263 C 
ATOM     14  O   UNL     1      -3.919  11.934  -0.964  0.00  0.00    -0.268 OA
ATOM     15  H   UNL     1      -1.155  12.348  -2.505  0.00  0.00    +0.000 HD
BRANCH  13  16
ATOM     16  C   UNL     1      -2.460  10.261  -1.735  0.00  0.00    +0.038 A 
ATOM     17  C   UNL     1      -1.162   9.794  -1.494  0.00  0.00    -0.048 A 
ATOM     18  C   UNL     1      -0.853   8.443  -1.703  0.00  0.00    -0.040 A 
ATOM     19  C   UNL     1      -1.815   7.550  -2.185  0.00  0.00    +0.025 A 
ATOM     20  C   UNL     1      -3.126   8.004  -2.340  0.00  0.00    -0.040 A 
ATOM     21  C   UNL     1      -3.446   9.350  -2.135  0.00  0.00    -0.048 A 
BRANCH  19  22
ATOM     22  N   UNL     1      -1.528   6.185  -2.275  0.00  0.00    -0.358 N 
ATOM     23  H   UNL     1      -0.875   5.778  -1.661  0.00  0.00    +0.000 HD
ATOM     24  H   UNL     1      -1.980   5.630  -2.951  0.00  0.00    +0.000 HD
ENDBRANCH  19  22
ENDBRANCH  13  16
ENDBRANCH  11  12
ENDBRANCH   9  10
BRANCH   7  25
ATOM     25  C   UNL     1      -4.744  18.866  -1.477  0.00  0.00    +0.048 C 
BRANCH  25  26
ATOM     26  C   UNL     1      -6.174  18.921  -1.952  0.00  0.00    -0.028 A 
ATOM     27  C   UNL     1      -6.552  19.795  -2.983  0.00  0.00    -0.056 A 
ATOM     28  C   UNL     1      -7.894  19.932  -3.342  0.00  0.00    -0.047 A 
ATOM     29  C   UNL     1      -8.865  19.184  -2.683  0.00  0.00    +0.018 A 
ATOM     30  C   UNL     1      -8.504  18.268  -1.697  0.00  0.00    -0.047 A 
ATOM     31  C   UNL     1      -7.160  18.137  -1.335  0.00  0.00    -0.056 A 
ATOM     32 BR   UNL     1     -10.690  19.441  -3.103  0.00  0.00    -0.050 Br
ENDBRANCH  25  26
ENDBRANCH   7  25
TORSDOF 6
ENDMDL
