MODEL 1
REMARK VINA RESULT:    -6.198      0.000      0.000
REMARK INTER + INTRA:          -8.091
REMARK INTER:                  -7.467
REMARK INTRA:                  -0.624
REMARK UNBOUND:                -0.624
REMARK  Name = 4a.pdb
REMARK  4 active torsions:
REMARK  status: ('A' for Active; 'I' for Inactive)
REMARK    1  A    between atoms: N_7  and  C_11
REMARK    2  A    between atoms: C_9  and  C_10
REMARK    3  A    between atoms: C_10  and  O_18
REMARK    4  A    between atoms: C_11  and  C_12
REMARK                            x       y       z     vdW  Elec       q    Type
REMARK                         _______ _______ _______ _____ _____    ______ ____
ROOT
ATOM      1  C   UNL     1      -1.575  17.221  -5.998  0.00  0.00    -0.061 A 
ATOM      2  C   UNL     1      -2.689  16.826  -5.267  0.00  0.00    -0.060 A 
ATOM      3  C   UNL     1      -2.569  16.444  -3.929  0.00  0.00    -0.038 A 
ATOM      4  C   UNL     1      -1.292  16.456  -3.341  0.00  0.00    +0.050 A 
ATOM      5  C   UNL     1      -0.158  16.856  -4.055  0.00  0.00    +0.005 A 
ATOM      6  C   UNL     1      -0.309  17.244  -5.404  0.00  0.00    -0.052 A 
ATOM      7  N   UNL     1      -0.870  16.114  -2.071  0.00  0.00    -0.342 N 
ATOM      8  C   UNL     1       0.484  16.312  -1.961  0.00  0.00    +0.011 A 
ATOM      9  C   UNL     1       0.967  16.770  -3.173  0.00  0.00    +0.003 A 
ENDROOT
BRANCH   9  10
ATOM     10  C   UNL     1       2.383  17.111  -3.484  0.00  0.00    +0.071 C 
BRANCH  10  11
ATOM     11  O   UNL     1       3.255  16.729  -2.424  0.00  0.00    -0.390 OA
ATOM     12  H   UNL     1       2.740  16.307  -1.718  0.00  0.00    +0.000 HD
ENDBRANCH  10  11
ENDBRANCH   9  10
BRANCH   7  13
ATOM     13  C   UNL     1      -1.719  15.640  -0.981  0.00  0.00    +0.048 C 
BRANCH  13  14
ATOM     14  C   UNL     1      -1.844  14.135  -1.004  0.00  0.00    -0.028 A 
ATOM     15  C   UNL     1      -2.942  12.123  -1.823  0.00  0.00    -0.047 A 
ATOM     16  C   UNL     1      -1.961  11.343  -1.215  0.00  0.00    +0.018 A 
ATOM     17  C   UNL     1      -0.940  11.940  -0.479  0.00  0.00    -0.047 A 
ATOM     18  C   UNL     1      -0.882  13.332  -0.373  0.00  0.00    -0.056 A 
ATOM     19 BR   UNL     1      -1.999   9.465  -1.418  0.00  0.00    -0.050 Br
ATOM     20  C   UNL     1      -2.886  13.513  -1.709  0.00  0.00    -0.056 A 
ENDBRANCH  13  14
ENDBRANCH   7  13
TORSDOF 4
ENDMDL
