MODEL 1
REMARK VINA RESULT:    -5.638      0.000      0.000
REMARK INTER + INTRA:          -7.359
REMARK INTER:                  -6.791
REMARK INTRA:                  -0.568
REMARK UNBOUND:                -0.568
REMARK  Name = 4b.sdf
REMARK  4 active torsions:
REMARK  status: ('A' for Active; 'I' for Inactive)
REMARK    1  A    between atoms: N_7  and  C_11
REMARK    2  A    between atoms: C_9  and  C_10
REMARK    3  A    between atoms: C_10  and  O_18
REMARK    4  A    between atoms: C_11  and  C_12
REMARK                            x       y       z     vdW  Elec       q    Type
REMARK                         _______ _______ _______ _____ _____    ______ ____
ROOT
ATOM      1  C   UNL     1      -1.570  17.113  -5.891  0.00  0.00    -0.061 A 
ATOM      2  C   UNL     1      -2.717  16.824  -5.158  0.00  0.00    -0.060 A 
ATOM      3  C   UNL     1      -2.648  16.503  -3.797  0.00  0.00    -0.038 A 
ATOM      4  C   UNL     1      -1.384  16.450  -3.183  0.00  0.00    +0.050 A 
ATOM      5  C   UNL     1      -0.229  16.807  -3.890  0.00  0.00    +0.005 A 
ATOM      6  C   UNL     1      -0.327  17.129  -5.262  0.00  0.00    -0.052 A 
ATOM      7  N   UNL     1      -0.973  16.073  -1.914  0.00  0.00    -0.342 N 
ATOM      8  C   UNL     1       0.382  16.281  -1.795  0.00  0.00    +0.011 A 
ATOM      9  C   UNL     1       0.876  16.757  -2.984  0.00  0.00    +0.003 A 
ENDROOT
BRANCH   9  10
ATOM     10  C   UNL     1       2.289  17.106  -3.306  0.00  0.00    +0.071 C 
BRANCH  10  11
ATOM     11  O   UNL     1       3.203  16.553  -2.365  0.00  0.00    -0.390 OA
ATOM     12  H   UNL     1       2.713  16.221  -1.597  0.00  0.00    +0.000 HD
ENDBRANCH  10  11
ENDBRANCH   9  10
BRANCH   7  13
ATOM     13  C   UNL     1      -1.770  15.392  -0.888  0.00  0.00    +0.048 C 
BRANCH  13  14
ATOM     14  C   UNL     1      -1.643  13.891  -0.972  0.00  0.00    -0.025 A 
ATOM     15  C   UNL     1      -2.586  13.139  -1.675  0.00  0.00    -0.039 A 
ATOM     16  C   UNL     1      -2.512  11.755  -1.623  0.00  0.00    +0.028 A 
ATOM     17  N   UNL     1      -1.549  11.079  -0.964  0.00  0.00    -0.263 NA
ATOM     18  C   UNL     1      -0.614  11.819  -0.332  0.00  0.00    +0.028 A 
ATOM     19  C   UNL     1      -0.614  13.207  -0.312  0.00  0.00    -0.039 A 
ENDBRANCH  13  14
ENDBRANCH   7  13
TORSDOF 4
ENDMDL
