MODEL 1
REMARK VINA RESULT:    -7.047      0.000      0.000
REMARK INTER + INTRA:          -9.911
REMARK INTER:                  -9.107
REMARK INTRA:                  -0.804
REMARK UNBOUND:                -0.804
REMARK  Name = 5a.sdf
REMARK  6 active torsions:
REMARK  status: ('A' for Active; 'I' for Inactive)
REMARK    1  A    between atoms: N_7  and  C_12
REMARK    2  A    between atoms: C_9  and  C_10
REMARK    3  A    between atoms: C_11  and  C_20
REMARK    4  A    between atoms: C_12  and  C_13
REMARK    5  A    between atoms: C_20  and  O_21
REMARK    6  A    between atoms: O_21  and  C_23
REMARK                            x       y       z     vdW  Elec       q    Type
REMARK                         _______ _______ _______ _____ _____    ______ ____
ROOT
ATOM      1  C   UNL     1      -6.451  12.606  -0.988  0.00  0.00    -0.061 A 
ATOM      2  C   UNL     1      -6.361  13.980  -1.194  0.00  0.00    -0.060 A 
ATOM      3  C   UNL     1      -5.117  14.599  -1.398  0.00  0.00    -0.038 A 
ATOM      4  C   UNL     1      -3.951  13.806  -1.366  0.00  0.00    +0.050 A 
ATOM      5  C   UNL     1      -4.033  12.410  -1.223  0.00  0.00    +0.007 A 
ATOM      6  C   UNL     1      -5.300  11.818  -1.024  0.00  0.00    -0.052 A 
ATOM      7  N   UNL     1      -2.601  14.119  -1.436  0.00  0.00    -0.342 N 
ATOM      8  C   UNL     1      -1.856  12.950  -1.444  0.00  0.00    +0.013 A 
ATOM      9  C   UNL     1      -2.711  11.873  -1.324  0.00  0.00    +0.000 A 
ENDROOT
BRANCH   9  10
ATOM     10  C   UNL     1      -2.378  10.468  -1.302  0.00  0.00    -0.046 C 
ATOM     11  C   UNL     1      -2.431   9.609  -2.331  0.00  0.00    +0.023 C 
BRANCH  11  12
ATOM     12  C   UNL     1      -2.119   8.148  -2.314  0.00  0.00    +0.332 C 
ATOM     13  O   UNL     1      -2.754   7.382  -1.613  0.00  0.00    -0.246 OA
BRANCH  12  14
ATOM     14  O   UNL     1      -1.087   7.797  -3.125  0.00  0.00    -0.465 OA
ATOM     15  C   UNL     1       0.208   7.904  -2.519  0.00  0.00    +0.082 C 
ENDBRANCH  12  14
ENDBRANCH  11  12
ENDBRANCH   9  10
BRANCH   7  16
ATOM     16  C   UNL     1      -2.001  15.458  -1.354  0.00  0.00    +0.048 C 
BRANCH  16  17
ATOM     17  C   UNL     1      -1.657  16.014  -2.715  0.00  0.00    -0.028 A 
ATOM     18  C   UNL     1      -0.321  16.256  -3.064  0.00  0.00    -0.056 A 
ATOM     19  C   UNL     1      -0.010  16.972  -4.221  0.00  0.00    -0.047 A 
ATOM     20  C   UNL     1      -1.032  17.417  -5.054  0.00  0.00    +0.018 A 
ATOM     21  C   UNL     1      -2.357  17.084  -4.783  0.00  0.00    -0.047 A 
ATOM     22  C   UNL     1      -2.668  16.379  -3.618  0.00  0.00    -0.056 A 
ATOM     23 BR   UNL     1      -0.627  18.545  -6.515  0.00  0.00    -0.050 Br
ENDBRANCH  16  17
ENDBRANCH   7  16
TORSDOF 5
ENDMDL
