MODEL 1
REMARK VINA RESULT:    -5.884      0.000      0.000
REMARK INTER + INTRA:          -7.729
REMARK INTER:                  -7.432
REMARK INTRA:                  -0.298
REMARK UNBOUND:                -0.298
REMARK  Name = 6.sdf
REMARK  6 active torsions:
REMARK  status: ('A' for Active; 'I' for Inactive)
REMARK    1  A    between atoms: C_9  and  C_10
REMARK    2  A    between atoms: C_10  and  C_11
REMARK    3  A    between atoms: C_11  and  C_12
REMARK    4  A    between atoms: C_11  and  N_15
REMARK    5  A    between atoms: C_12  and  O_13
REMARK    6  A    between atoms: O_13  and  C_16
REMARK                            x       y       z     vdW  Elec       q    Type
REMARK                         _______ _______ _______ _____ _____    ______ ____
ROOT
ATOM      1  C   UNL     1      -3.123  14.505  -3.074  0.00  0.00    -0.061 A 
ATOM      2  C   UNL     1      -2.040  15.379  -3.057  0.00  0.00    -0.060 A 
ATOM      3  C   UNL     1      -0.879  15.064  -2.346  0.00  0.00    -0.038 A 
ATOM      4  C   UNL     1      -0.838  13.838  -1.675  0.00  0.00    +0.047 A 
ATOM      5  C   UNL     1      -1.898  12.927  -1.690  0.00  0.00    +0.003 A 
ATOM      6  C   UNL     1      -3.068  13.281  -2.396  0.00  0.00    -0.052 A 
ATOM      7  N   UNL     1       0.164  13.281  -0.918  0.00  0.00    -0.360 N 
ATOM      8  C   UNL     1      -0.202  12.036  -0.488  0.00  0.00    +0.006 A 
ATOM      9  C   UNL     1      -1.477  11.769  -0.953  0.00  0.00    -0.020 A 
ATOM     10  H   UNL     1       1.023  13.716  -0.714  0.00  0.00    +0.000 HD
ENDROOT
BRANCH   9  11
ATOM     11  C   UNL     1      -2.236  10.487  -0.762  0.00  0.00    -0.000 C 
BRANCH  11  12
ATOM     12  C   UNL     1      -2.445   9.673  -2.046  0.00  0.00    +0.107 C 
BRANCH  12  13
ATOM     13  N   UNL     1      -3.861   9.214  -2.132  0.00  0.00    -0.318 N 
ATOM     14  H   UNL     1      -4.464   9.883  -1.655  0.00  0.00    +0.000 HD
ATOM     15  H   UNL     1      -3.950   8.300  -1.690  0.00  0.00    +0.000 HD
ATOM     16  H   UNL     1      -4.138   9.146  -3.111  0.00  0.00    +0.000 HD
ENDBRANCH  12  13
BRANCH  12  17
ATOM     17  C   UNL     1      -1.505   8.458  -2.041  0.00  0.00    +0.324 C 
ATOM     18  O   UNL     1      -1.621   7.506  -1.279  0.00  0.00    -0.249 OA
BRANCH  17  19
ATOM     19  O   UNL     1      -0.548   8.599  -2.998  0.00  0.00    -0.467 OA
ATOM     20  C   UNL     1       0.680   7.901  -2.778  0.00  0.00    +0.082 C 
ENDBRANCH  17  19
ENDBRANCH  12  17
ENDBRANCH  11  12
ENDBRANCH   9  11
TORSDOF 5
ENDMDL
