MODEL 1
REMARK VINA RESULT:    -6.546      0.000      0.000
REMARK INTER + INTRA:          -8.536
REMARK INTER:                  -8.077
REMARK INTRA:                  -0.459
REMARK UNBOUND:                -0.459
REMARK  Name = 7d.sdf
REMARK  5 active torsions:
REMARK  status: ('A' for Active; 'I' for Inactive)
REMARK    1  A    between atoms: C_9  and  C_10
REMARK    2  A    between atoms: C_10  and  C_11
REMARK    3  A    between atoms: C_11  and  O_20
REMARK    4  A    between atoms: C_12  and  C_13
REMARK    5  A    between atoms: O_20  and  C_22
REMARK                            x       y       z     vdW  Elec       q    Type
REMARK                         _______ _______ _______ _____ _____    ______ ____
ROOT
ATOM      1  C   UNL     1       0.823  14.591  -1.684  0.00  0.00    -0.061 A 
ATOM      2  C   UNL     1       0.077  15.692  -2.088  0.00  0.00    -0.060 A 
ATOM      3  C   UNL     1      -1.319  15.632  -2.142  0.00  0.00    -0.037 A 
ATOM      4  C   UNL     1      -1.956  14.428  -1.785  0.00  0.00    +0.057 A 
ATOM      5  C   UNL     1      -1.220  13.311  -1.364  0.00  0.00    +0.004 A 
ATOM      6  C   UNL     1       0.188  13.402  -1.319  0.00  0.00    -0.052 A 
ATOM      7  N   UNL     1      -3.309  14.106  -1.686  0.00  0.00    -0.283 N 
ATOM      8  C   UNL     1      -3.398  12.772  -1.331  0.00  0.00    +0.018 A 
ATOM      9  C   UNL     1      -2.146  12.272  -1.049  0.00  0.00    -0.011 A 
ATOM     10  C   UNL     1      -4.422  14.961  -1.883  0.00  0.00    +0.263 C 
ATOM     11  O   UNL     1      -4.284  15.959  -2.585  0.00  0.00    -0.267 OA
ENDROOT
BRANCH  10  12
ATOM     12  C   UNL     1      -5.748  14.688  -1.268  0.00  0.00    +0.040 A 
ATOM     13  C   UNL     1      -6.065  15.241  -0.019  0.00  0.00    -0.049 A 
ATOM     14  C   UNL     1      -7.281  14.936   0.592  0.00  0.00    -0.061 A 
ATOM     15  C   UNL     1      -8.192  14.105  -0.055  0.00  0.00    -0.062 A 
ATOM     16  C   UNL     1      -7.900  13.594  -1.322  0.00  0.00    -0.061 A 
ATOM     17  C   UNL     1      -6.678  13.890  -1.940  0.00  0.00    -0.049 A 
ENDBRANCH  10  12
BRANCH   9  18
ATOM     18  C   UNL     1      -1.854  10.897  -0.528  0.00  0.00    +0.072 C 
BRANCH  18  19
ATOM     19  C   UNL     1      -1.920   9.829  -1.609  0.00  0.00    +0.311 C 
ATOM     20  O   UNL     1      -2.911   9.497  -2.247  0.00  0.00    -0.250 OA
BRANCH  19  21
ATOM     21  O   UNL     1      -0.676   9.290  -1.785  0.00  0.00    -0.468 OA
ATOM     22  C   UNL     1      -0.694   7.993  -2.386  0.00  0.00    +0.082 C 
ENDBRANCH  19  21
ENDBRANCH  18  19
ENDBRANCH   9  18
TORSDOF 4
ENDMDL
