MODEL 1
REMARK VINA RESULT:    -7.382      0.000      0.000
REMARK INTER + INTRA:          -8.925
REMARK INTER:                  -8.677
REMARK INTRA:                  -0.247
REMARK UNBOUND:                -0.247
REMARK  Name = 8.sdf
REMARK  3 active torsions:
REMARK  status: ('A' for Active; 'I' for Inactive)
REMARK    1  A    between atoms: C_9  and  C_10
REMARK    2  A    between atoms: N_11  and  N_12
REMARK    3  A    between atoms: C_13  and  C_15
REMARK                            x       y       z     vdW  Elec       q    Type
REMARK                         _______ _______ _______ _____ _____    ______ ____
ROOT
ATOM      1  C   UNL     1      -2.349  11.168  -2.026  0.00  0.00    +0.055 C 
ATOM      2  N   UNL     1      -1.520  11.806  -1.267  0.00  0.00    -0.187 NA
ENDROOT
BRANCH   1  11
ATOM      3  C   UNL     1       0.700   7.649  -1.354  0.00  0.00    -0.061 A 
ATOM      4  C   UNL     1       0.056   6.421  -1.233  0.00  0.00    -0.060 A 
ATOM      5  C   UNL     1      -1.335   6.329  -1.327  0.00  0.00    -0.038 A 
ATOM      6  C   UNL     1      -2.052   7.513  -1.537  0.00  0.00    +0.047 A 
ATOM      7  C   UNL     1      -1.439   8.763  -1.659  0.00  0.00    +0.008 A 
ATOM      8  C   UNL     1      -0.031   8.825  -1.568  0.00  0.00    -0.052 A 
ATOM      9  N   UNL     1      -3.407   7.711  -1.661  0.00  0.00    -0.360 N 
ATOM     10  C   UNL     1      -3.672   9.037  -1.847  0.00  0.00    +0.011 A 
ATOM     11  C   UNL     1      -2.476   9.733  -1.855  0.00  0.00    +0.020 A 
ATOM     12  H   UNL     1      -4.086   6.999  -1.622  0.00  0.00    +0.000 HD
ENDBRANCH   1  11
BRANCH   2  13
ATOM     13  N   UNL     1      -1.402  13.156  -1.441  0.00  0.00    -0.203 N 
ATOM     14  C   UNL     1      -0.126  13.707  -1.442  0.00  0.00    +0.263 C 
ATOM     15  O   UNL     1       0.914  13.066  -1.311  0.00  0.00    -0.268 OA
ATOM     16  H   UNL     1      -2.198  13.721  -1.563  0.00  0.00    +0.000 HD
BRANCH  14  17
ATOM     17  C   UNL     1      -0.029  15.181  -1.640  0.00  0.00    +0.038 A 
ATOM     18  C   UNL     1       1.196  15.858  -1.692  0.00  0.00    -0.049 A 
ATOM     19  C   UNL     1       1.222  17.238  -1.932  0.00  0.00    -0.047 A 
ATOM     20  C   UNL     1       0.030  17.937  -2.122  0.00  0.00    +0.018 A 
ATOM     21  C   UNL     1      -1.194  17.273  -2.078  0.00  0.00    -0.047 A 
ATOM     22  C   UNL     1      -1.221  15.895  -1.842  0.00  0.00    -0.049 A 
ATOM     23 BR   UNL     1       0.075  19.795  -2.465  0.00  0.00    -0.050 Br
ENDBRANCH  14  17
ENDBRANCH   2  13
TORSDOF 3
ENDMDL
