MODEL 1
REMARK VINA RESULT:    -7.222      0.000      0.000
REMARK INTER + INTRA:         -10.103
REMARK INTER:                  -9.333
REMARK INTRA:                  -0.769
REMARK UNBOUND:                -0.769
REMARK  Name = 8b.sdf
REMARK  5 active torsions:
REMARK  status: ('A' for Active; 'I' for Inactive)
REMARK    1  A    between atoms: N_7  and  C_12
REMARK    2  A    between atoms: C_9  and  C_10
REMARK    3  A    between atoms: N_11  and  N_19
REMARK    4  A    between atoms: C_12  and  C_13
REMARK    5  A    between atoms: C_20  and  C_22
REMARK                            x       y       z     vdW  Elec       q    Type
REMARK                         _______ _______ _______ _____ _____    ______ ____
ROOT
ATOM      1  C   UNL     1      -6.382  14.055  -1.891  0.00  0.00    -0.061 A 
ATOM      2  C   UNL     1      -6.389  12.961  -1.034  0.00  0.00    -0.060 A 
ATOM      3  C   UNL     1      -5.200  12.308  -0.689  0.00  0.00    -0.038 A 
ATOM      4  C   UNL     1      -3.993  12.784  -1.231  0.00  0.00    +0.050 A 
ATOM      5  C   UNL     1      -3.959  13.920  -2.052  0.00  0.00    +0.009 A 
ATOM      6  C   UNL     1      -5.177  14.551  -2.392  0.00  0.00    -0.052 A 
ATOM      7  N   UNL     1      -2.692  12.320  -1.135  0.00  0.00    -0.342 N 
ATOM      8  C   UNL     1      -1.846  13.176  -1.796  0.00  0.00    +0.015 A 
ATOM      9  C   UNL     1      -2.591  14.192  -2.361  0.00  0.00    +0.020 A 
ENDROOT
BRANCH   9  10
ATOM     10  C   UNL     1      -2.067  15.310  -3.120  0.00  0.00    +0.055 C 
ATOM     11  N   UNL     1      -2.649  15.667  -4.219  0.00  0.00    -0.187 NA
BRANCH  11  12
ATOM     12  N   UNL     1      -2.084  16.719  -4.881  0.00  0.00    -0.203 N 
ATOM     13  C   UNL     1      -2.597  17.999  -4.695  0.00  0.00    +0.263 C 
ATOM     14  O   UNL     1      -3.532  18.286  -3.959  0.00  0.00    -0.268 OA
ATOM     15  H   UNL     1      -1.319  16.573  -5.483  0.00  0.00    +0.000 HD
BRANCH  13  16
ATOM     16  C   UNL     1      -1.899  19.087  -5.439  0.00  0.00    +0.038 A 
ATOM     17  C   UNL     1      -2.266  20.435  -5.326  0.00  0.00    -0.049 A 
ATOM     18  C   UNL     1      -1.585  21.413  -6.059  0.00  0.00    -0.047 A 
ATOM     19  C   UNL     1      -0.531  21.045  -6.896  0.00  0.00    +0.018 A 
ATOM     20  C   UNL     1      -0.138  19.713  -6.994  0.00  0.00    -0.047 A 
ATOM     21  C   UNL     1      -0.819  18.735  -6.263  0.00  0.00    -0.049 A 
ATOM     22 BR   UNL     1       0.375  22.368  -7.899  0.00  0.00    -0.050 Br
ENDBRANCH  13  16
ENDBRANCH  11  12
ENDBRANCH   9  10
BRANCH   7  23
ATOM     23  C   UNL     1      -2.257  11.052  -0.552  0.00  0.00    +0.048 C 
BRANCH  23  24
ATOM     24  C   UNL     1      -2.039   9.991  -1.598  0.00  0.00    -0.025 A 
ATOM     25  C   UNL     1      -3.055   9.654  -2.498  0.00  0.00    -0.039 A 
ATOM     26  C   UNL     1      -2.837   8.617  -3.392  0.00  0.00    +0.028 A 
ATOM     27  N   UNL     1      -1.687   7.919  -3.467  0.00  0.00    -0.263 NA
ATOM     28  C   UNL     1      -0.707   8.274  -2.609  0.00  0.00    +0.028 A 
ATOM     29  C   UNL     1      -0.831   9.290  -1.674  0.00  0.00    -0.039 A 
ENDBRANCH  23  24
ENDBRANCH   7  23
TORSDOF 5
ENDMDL
