MODEL 1
REMARK VINA RESULT:    -6.936      0.000      0.000
REMARK INTER + INTRA:          -9.922
REMARK INTER:                  -8.963
REMARK INTRA:                  -0.959
REMARK UNBOUND:                -0.959
REMARK  Name = 8c.sdf
REMARK  5 active torsions:
REMARK  status: ('A' for Active; 'I' for Inactive)
REMARK    1  A    between atoms: N_7  and  C_12
REMARK    2  A    between atoms: C_9  and  C_10
REMARK    3  A    between atoms: N_11  and  N_20
REMARK    4  A    between atoms: C_12  and  C_13
REMARK    5  A    between atoms: C_21  and  C_23
REMARK                            x       y       z     vdW  Elec       q    Type
REMARK                         _______ _______ _______ _____ _____    ______ ____
ROOT
ATOM      1  C   UNL     1      -2.354  11.132  -1.090  0.00  0.00    -0.061 A 
ATOM      2  C   UNL     1      -1.316  12.028  -0.856  0.00  0.00    -0.060 A 
ATOM      3  C   UNL     1      -1.550  13.406  -0.828  0.00  0.00    -0.038 A 
ATOM      4  C   UNL     1      -2.862  13.867  -1.030  0.00  0.00    +0.050 A 
ATOM      5  C   UNL     1      -3.931  12.981  -1.222  0.00  0.00    +0.009 A 
ATOM      6  C   UNL     1      -3.660  11.594  -1.267  0.00  0.00    -0.052 A 
ATOM      7  N   UNL     1      -3.385  15.144  -1.097  0.00  0.00    -0.342 N 
ATOM      8  C   UNL     1      -4.747  15.083  -1.252  0.00  0.00    +0.015 A 
ATOM      9  C   UNL     1      -5.127  13.756  -1.325  0.00  0.00    +0.020 A 
ENDROOT
BRANCH   9  10
ATOM     10  C   UNL     1      -6.480  13.264  -1.472  0.00  0.00    +0.055 C 
ATOM     11  N   UNL     1      -7.341  13.452  -0.523  0.00  0.00    -0.187 NA
BRANCH  11  12
ATOM     12  N   UNL     1      -8.591  12.946  -0.744  0.00  0.00    -0.203 N 
ATOM     13  C   UNL     1      -9.649  13.818  -0.971  0.00  0.00    +0.263 C 
ATOM     14  O   UNL     1      -9.562  15.041  -1.013  0.00  0.00    -0.268 OA
ATOM     15  H   UNL     1      -8.741  11.973  -0.740  0.00  0.00    +0.000 HD
BRANCH  13  16
ATOM     16  C   UNL     1     -10.972  13.175  -1.219  0.00  0.00    +0.038 A 
ATOM     17  C   UNL     1     -12.142  13.918  -1.439  0.00  0.00    -0.049 A 
ATOM     18  C   UNL     1     -13.359  13.264  -1.663  0.00  0.00    -0.047 A 
ATOM     19  C   UNL     1     -13.406  11.870  -1.674  0.00  0.00    +0.018 A 
ATOM     20  C   UNL     1     -12.248  11.121  -1.478  0.00  0.00    -0.047 A 
ATOM     21  C   UNL     1     -11.031  11.776  -1.255  0.00  0.00    -0.049 A 
ATOM     22 BR   UNL     1     -15.052  10.989  -1.970  0.00  0.00    -0.050 Br
ENDBRANCH  13  16
ENDBRANCH  11  12
ENDBRANCH   9  10
BRANCH   7  23
ATOM     23  C   UNL     1      -2.622  16.391  -1.109  0.00  0.00    +0.048 C 
BRANCH  23  24
ATOM     24  C   UNL     1      -2.242  16.801  -2.510  0.00  0.00    -0.028 A 
ATOM     25  C   UNL     1      -3.143  17.515  -3.314  0.00  0.00    -0.055 A 
ATOM     26  C   UNL     1      -2.832  17.807  -4.644  0.00  0.00    -0.043 A 
ATOM     27  C   UNL     1      -1.611  17.396  -5.174  0.00  0.00    +0.041 A 
ATOM     28  C   UNL     1      -0.686  16.727  -4.377  0.00  0.00    -0.043 A 
ATOM     29  C   UNL     1      -0.999  16.432  -3.048  0.00  0.00    -0.055 A 
ATOM     30 CL   UNL     1      -1.255  17.700  -6.830  0.00  0.00    -0.084 Cl
ENDBRANCH  23  24
ENDBRANCH   7  23
TORSDOF 5
ENDMDL
