MODEL 1
REMARK VINA RESULT:    -6.892      0.000      0.000
REMARK INTER + INTRA:          -9.167
REMARK INTER:                  -8.503
REMARK INTRA:                  -0.664
REMARK UNBOUND:                -0.664
REMARK  Name = 8d.sdf
REMARK  4 active torsions:
REMARK  status: ('A' for Active; 'I' for Inactive)
REMARK    1  A    between atoms: C_9  and  C_10
REMARK    2  A    between atoms: N_11  and  N_19
REMARK    3  A    between atoms: C_12  and  C_13
REMARK    4  A    between atoms: C_20  and  C_22
REMARK                            x       y       z     vdW  Elec       q    Type
REMARK                         _______ _______ _______ _____ _____    ______ ____
ROOT
ATOM      1  C   UNL     1      -3.343  15.815  -5.153  0.00  0.00    -0.061 A 
ATOM      2  C   UNL     1      -2.689  16.457  -6.195  0.00  0.00    -0.060 A 
ATOM      3  C   UNL     1      -1.500  17.155  -5.972  0.00  0.00    -0.037 A 
ATOM      4  C   UNL     1      -0.983  17.206  -4.663  0.00  0.00    +0.057 A 
ATOM      5  C   UNL     1      -1.617  16.548  -3.599  0.00  0.00    +0.009 A 
ATOM      6  C   UNL     1      -2.818  15.848  -3.855  0.00  0.00    -0.052 A 
ATOM      7  N   UNL     1       0.172  17.805  -4.164  0.00  0.00    -0.282 N 
ATOM      8  C   UNL     1       0.230  17.548  -2.807  0.00  0.00    +0.023 A 
ATOM      9  C   UNL     1      -0.836  16.764  -2.423  0.00  0.00    +0.020 A 
ATOM     10  C   UNL     1       1.136  18.552  -4.887  0.00  0.00    +0.263 C 
ATOM     11  O   UNL     1       0.756  19.174  -5.882  0.00  0.00    -0.267 OA
ENDROOT
BRANCH  10  12
ATOM     12  C   UNL     1       2.559  18.638  -4.474  0.00  0.00    +0.040 A 
ATOM     13  C   UNL     1       3.410  17.534  -4.631  0.00  0.00    -0.049 A 
ATOM     14  C   UNL     1       4.703  17.572  -4.113  0.00  0.00    -0.061 A 
ATOM     15  C   UNL     1       5.163  18.726  -3.483  0.00  0.00    -0.062 A 
ATOM     16  C   UNL     1       4.348  19.857  -3.404  0.00  0.00    -0.061 A 
ATOM     17  C   UNL     1       3.047  19.819  -3.907  0.00  0.00    -0.049 A 
ENDBRANCH  10  12
BRANCH   9  18
ATOM     18  C   UNL     1      -1.077  16.294  -1.071  0.00  0.00    +0.055 C 
ATOM     19  N   UNL     1      -0.745  17.052  -0.077  0.00  0.00    -0.187 NA
BRANCH  19  20
ATOM     20  N   UNL     1      -0.995  16.572   1.181  0.00  0.00    -0.203 N 
ATOM     21  C   UNL     1      -0.327  17.128   2.268  0.00  0.00    +0.263 C 
ATOM     22  O   UNL     1       0.492  18.042   2.204  0.00  0.00    -0.268 OA
ATOM     23  H   UNL     1      -1.641  15.842   1.316  0.00  0.00    +0.000 HD
BRANCH  21  24
ATOM     24  C   UNL     1      -0.681  16.572   3.606  0.00  0.00    +0.038 A 
ATOM     25  C   UNL     1      -0.859  17.388   4.732  0.00  0.00    -0.049 A 
ATOM     26  C   UNL     1      -1.156  16.815   5.974  0.00  0.00    -0.047 A 
ATOM     27  C   UNL     1      -1.287  15.432   6.089  0.00  0.00    +0.018 A 
ATOM     28  C   UNL     1      -1.156  14.614   4.969  0.00  0.00    -0.047 A 
ATOM     29  C   UNL     1      -0.858  15.185   3.728  0.00  0.00    -0.049 A 
ATOM     30 BR   UNL     1      -1.644  14.663   7.779  0.00  0.00    -0.050 Br
ENDBRANCH  21  24
ENDBRANCH  19  20
ENDBRANCH   9  18
TORSDOF 4
ENDMDL
