MODEL 1
REMARK VINA RESULT:    -6.147      0.000      0.000
REMARK INTER + INTRA:          -6.147
REMARK INTER:                  -6.147
REMARK INTRA:                   0.000
REMARK UNBOUND:                 0.000
REMARK  Name = native.pdb
REMARK  1 active torsions:
REMARK  status: ('A' for Active; 'I' for Inactive)
REMARK    1  A    between atoms: C_8  and  C_10
REMARK                            x       y       z     vdW  Elec       q    Type
REMARK                         _______ _______ _______ _____ _____    ______ ____
ROOT
ATOM      1  C   UNL     1      -1.423  13.492  -0.939  0.00  0.00    +0.012 C 
ATOM      2  C   UNL     1      -2.424  13.077  -2.021  0.00  0.00    -0.042 C 
ATOM      3  C   UNL     1      -2.929  14.289  -2.814  0.00  0.00    -0.025 C 
ATOM      4  C   UNL     1      -1.803  15.206  -3.175  0.00  0.00    -0.011 A 
ATOM      5  C   UNL     1      -0.562  15.172  -2.567  0.00  0.00    +0.096 A 
ATOM      6  C   UNL     1      -1.781  16.228  -4.146  0.00  0.00    +0.004 A 
ATOM      7  N   UNL     1       0.238  16.178  -3.105  0.00  0.00    -0.277 N 
ATOM      8  C   UNL     1       1.514  16.530  -2.610  0.00  0.00    +0.229 C 
ATOM      9  O   UNL     1       1.758  16.393  -1.417  0.00  0.00    -0.273 OA
ATOM     10  C   UNL     1       2.492  17.103  -3.586  0.00  0.00    +0.015 C 
ATOM     11  C   UNL     1      -0.504  16.810  -4.125  0.00  0.00    +0.057 A 
ATOM     12  C   UNL     1      -2.762  16.712  -5.040  0.00  0.00    -0.052 A 
ATOM     13  C   UNL     1      -0.220  17.893  -4.985  0.00  0.00    -0.037 A 
ATOM     14  C   UNL     1      -2.467  17.777  -5.888  0.00  0.00    -0.061 A 
ATOM     15  C   UNL     1      -1.211  18.360  -5.857  0.00  0.00    -0.060 A 
ATOM     16  C   UNL     1      -0.213  14.165  -1.578  0.00  0.00    +0.180 C 
ATOM     17  O   UNL     1       0.931  13.806  -1.312  0.00  0.00    -0.290 OA
ENDROOT
TORSDOF 0
ENDMDL
