REMARK  Name = 16.sdf
REMARK  4 active torsions:
REMARK  status: ('A' for Active; 'I' for Inactive)
REMARK    1  A    between atoms: C_9  and  C_10
REMARK    2  A    between atoms: C_10  and  O_11
REMARK    3  A    between atoms: O_11  and  C_12
REMARK    4  A    between atoms: C_12  and  C_13
REMARK                            x       y       z     vdW  Elec       q    Type
REMARK                         _______ _______ _______ _____ _____    ______ ____
ROOT
ATOM      1  C   UNL     1      -3.744   1.401  -1.828  0.00  0.00    -0.061 A 
ATOM      2  C   UNL     1      -2.933   2.500  -1.557  0.00  0.00    -0.060 A 
ATOM      3  C   UNL     1      -1.755   2.358  -0.819  0.00  0.00    -0.038 A 
ATOM      4  C   UNL     1      -1.423   1.076  -0.366  0.00  0.00    +0.047 A 
ATOM      5  C   UNL     1      -2.209  -0.049  -0.623  0.00  0.00    +0.005 A 
ATOM      6  C   UNL     1      -3.395   0.125  -1.369  0.00  0.00    -0.052 A 
ATOM      7  N   UNL     1      -0.342   0.654   0.371  0.00  0.00    -0.360 N 
ATOM      8  C   UNL     1      -0.419  -0.692   0.593  0.00  0.00    +0.008 A 
ATOM      9  C   UNL     1      -1.560  -1.177  -0.019  0.00  0.00    +0.003 A 
ATOM     10  H   UNL     1       0.383   1.237   0.693  0.00  0.00    +0.000 HD
ENDROOT
BRANCH   9  11
ATOM     11  C   UNL     1      -2.026  -2.599  -0.031  0.00  0.00    +0.075 C 
BRANCH  11  12
ATOM     12  O   UNL     1      -0.922  -3.504   0.050  0.00  0.00    -0.371 OA
BRANCH  12  13
ATOM     13  C   UNL     1      -1.341  -4.866   0.041  0.00  0.00    +0.073 C 
BRANCH  13  14
ATOM     14  C   UNL     1      -0.140  -5.780   0.135  0.00  0.00    -0.022 A 
ATOM     15  C   UNL     1      -0.261  -7.040   0.740  0.00  0.00    -0.055 A 
ATOM     16  C   UNL     1       0.836  -7.904   0.812  0.00  0.00    -0.043 A 
ATOM     17  C   UNL     1       2.059  -7.518   0.268  0.00  0.00    +0.041 A 
ATOM     18  C   UNL     1       2.193  -6.280  -0.354  0.00  0.00    -0.043 A 
ATOM     19  C   UNL     1       1.096  -5.418  -0.425  0.00  0.00    -0.055 A 
ATOM     20 CL   UNL     1       3.410  -8.580   0.361  0.00  0.00    -0.084 Cl
ENDBRANCH  13  14
ENDBRANCH  12  13
ENDBRANCH  11  12
ENDBRANCH   9  11
TORSDOF 4
