MODEL 1
REMARK VINA RESULT:    -5.161      0.000      0.000
REMARK INTER + INTRA:          -5.161
REMARK INTER:                  -5.161
REMARK INTRA:                   0.000
REMARK UNBOUND:                 0.000
REMARK  Name = 0.sdf
REMARK  0 active torsions:
REMARK  status: ('A' for Active; 'I' for Inactive)
REMARK                            x       y       z     vdW  Elec       q    Type
REMARK                         _______ _______ _______ _____ _____    ______ ____
ROOT
ATOM      1  C   UNL     1      19.810  10.112  32.659  0.00  0.00    -0.061 A 
ATOM      2  C   UNL     1      18.947   9.089  33.046  0.00  0.00    -0.060 A 
ATOM      3  C   UNL     1      19.350   7.750  33.004  0.00  0.00    -0.038 A 
ATOM      4  C   UNL     1      20.648   7.479  32.556  0.00  0.00    +0.046 A 
ATOM      5  C   UNL     1      21.533   8.482  32.161  0.00  0.00    -0.000 A 
ATOM      6  C   UNL     1      21.107   9.823  32.217  0.00  0.00    -0.053 A 
ATOM      7  N   UNL     1      21.306   6.278  32.407  0.00  0.00    -0.361 N 
ATOM      8  C   UNL     1      22.570   6.487  31.924  0.00  0.00    +0.003 A 
ATOM      9  C   UNL     1      22.742   7.843  31.766  0.00  0.00    -0.037 A 
ATOM     10  H   UNL     1      20.922   5.397  32.618  0.00  0.00    +0.000 HD
ENDROOT
TORSDOF 0
ENDMDL
