MODEL 1
REMARK VINA RESULT:    -6.039      0.000      0.000
REMARK INTER + INTRA:          -6.948
REMARK INTER:                  -6.746
REMARK INTRA:                  -0.203
REMARK UNBOUND:                -0.203
REMARK  Name = 12.sdf
REMARK  2 active torsions:
REMARK  status: ('A' for Active; 'I' for Inactive)
REMARK    1  A    between atoms: C_9  and  C_10
REMARK    2  A    between atoms: C_10  and  C_11
REMARK                            x       y       z     vdW  Elec       q    Type
REMARK                         _______ _______ _______ _____ _____    ______ ____
ROOT
ATOM      1  C   UNL     1      19.575   9.789  32.659  0.00  0.00    -0.061 A 
ATOM      2  C   UNL     1      18.927   8.757  33.333  0.00  0.00    -0.060 A 
ATOM      3  C   UNL     1      19.482   7.477  33.385  0.00  0.00    -0.038 A 
ATOM      4  C   UNL     1      20.709   7.273  32.743  0.00  0.00    +0.047 A 
ATOM      5  C   UNL     1      21.396   8.290  32.075  0.00  0.00    +0.003 A 
ATOM      6  C   UNL     1      20.809   9.571  32.030  0.00  0.00    -0.052 A 
ATOM      7  N   UNL     1      21.470   6.133  32.643  0.00  0.00    -0.360 N 
ATOM      8  C   UNL     1      22.617   6.391  31.944  0.00  0.00    +0.006 A 
ATOM      9  C   UNL     1      22.623   7.727  31.589  0.00  0.00    -0.012 A 
ATOM     10  H   UNL     1      21.225   5.257  33.020  0.00  0.00    +0.000 HD
ENDROOT
BRANCH   9  11
ATOM     11  C   UNL     1      23.739   8.439  30.882  0.00  0.00    +0.072 C 
BRANCH  11  12
ATOM     12  C   UNL     1      23.522   8.706  29.410  0.00  0.00    +0.309 C 
ATOM     13  O   UNL     1      23.606   7.827  28.559  0.00  0.00    -0.251 OA
ATOM     14  O   UNL     1      23.130   9.959  29.088  0.00  0.00    -0.480 OA
ENDBRANCH  11  12
ENDBRANCH   9  11
TORSDOF 2
ENDMDL
