MODEL 1
REMARK VINA RESULT:    -5.978      0.000      0.000
REMARK INTER + INTRA:          -7.430
REMARK INTER:                  -7.026
REMARK INTRA:                  -0.404
REMARK UNBOUND:                -0.404
REMARK  Name = 14.sdf
REMARK  4 active torsions:
REMARK  status: ('A' for Active; 'I' for Inactive)
REMARK    1  A    between atoms: C_9  and  C_10
REMARK    2  A    between atoms: C_10  and  O_11
REMARK    3  A    between atoms: O_11  and  C_12
REMARK    4  A    between atoms: C_12  and  C_13
REMARK                            x       y       z     vdW  Elec       q    Type
REMARK                         _______ _______ _______ _____ _____    ______ ____
ROOT
ATOM      1  C   UNL     1      22.551  11.117  32.199  0.00  0.00    -0.061 A 
ATOM      2  C   UNL     1      21.467  11.873  32.631  0.00  0.00    -0.060 A 
ATOM      3  C   UNL     1      20.278  11.256  33.032  0.00  0.00    -0.038 A 
ATOM      4  C   UNL     1      20.216   9.857  32.974  0.00  0.00    +0.047 A 
ATOM      5  C   UNL     1      21.283   9.068  32.542  0.00  0.00    +0.006 A 
ATOM      6  C   UNL     1      22.474   9.720  32.154  0.00  0.00    -0.052 A 
ATOM      7  N   UNL     1      19.185   9.005  33.293  0.00  0.00    -0.360 N 
ATOM      8  C   UNL     1      19.556   7.707  33.068  0.00  0.00    +0.009 A 
ATOM      9  C   UNL     1      20.860   7.698  32.600  0.00  0.00    +0.015 A 
ATOM     10  H   UNL     1      18.307   9.288  33.636  0.00  0.00    +0.000 HD
ENDROOT
BRANCH   9  11
ATOM     11  C   UNL     1      21.662   6.482  32.227  0.00  0.00    +0.119 C 
BRANCH  11  12
ATOM     12  O   UNL     1      21.784   6.337  30.778  0.00  0.00    -0.460 OA
BRANCH  12  13
ATOM     13  C   UNL     1      23.038   6.332  30.232  0.00  0.00    +0.304 C 
ATOM     14  C   UNL     1      23.300   7.454  29.253  0.00  0.00    +0.033 C 
ATOM     15  O   UNL     1      23.901   5.511  30.477  0.00  0.00    -0.251 OA
ENDBRANCH  12  13
ENDBRANCH  11  12
ENDBRANCH   9  11
TORSDOF 3
ENDMDL
