MODEL 1
REMARK VINA RESULT:    -6.937      0.000      0.000
REMARK INTER + INTRA:          -8.414
REMARK INTER:                  -8.154
REMARK INTRA:                  -0.260
REMARK UNBOUND:                -0.260
REMARK  Name = 14e.sdf
REMARK  5 active torsions:
REMARK  status: ('A' for Active; 'I' for Inactive)
REMARK    1  A    between atoms: C_9  and  C_10
REMARK    2  A    between atoms: C_10  and  O_11
REMARK    3  A    between atoms: O_11  and  C_12
REMARK    4  A    between atoms: C_12  and  C_13
REMARK    5  A    between atoms: C_15  and  C_16
REMARK                            x       y       z     vdW  Elec       q    Type
REMARK                         _______ _______ _______ _____ _____    ______ ____
ROOT
ATOM      1  C   UNL     1      19.277   7.887  33.100  0.00  0.00    -0.061 A 
ATOM      2  C   UNL     1      20.474   7.238  32.835  0.00  0.00    -0.060 A 
ATOM      3  C   UNL     1      21.636   7.964  32.559  0.00  0.00    -0.037 A 
ATOM      4  C   UNL     1      21.578   9.374  32.547  0.00  0.00    +0.057 A 
ATOM      5  C   UNL     1      20.375  10.039  32.808  0.00  0.00    +0.007 A 
ATOM      6  C   UNL     1      19.218   9.281  33.096  0.00  0.00    -0.052 A 
ATOM      7  N   UNL     1      22.571  10.337  32.312  0.00  0.00    -0.287 N 
ATOM      8  C   UNL     1      21.962  11.581  32.419  0.00  0.00    +0.020 A 
ATOM      9  C   UNL     1      20.621  11.438  32.715  0.00  0.00    +0.015 A 
ATOM     10  C   UNL     1      23.933  10.063  32.028  0.00  0.00    +0.229 C 
ATOM     11  C   UNL     1      24.861  11.224  31.814  0.00  0.00    +0.015 C 
ATOM     12  O   UNL     1      24.331   8.904  31.963  0.00  0.00    -0.273 OA
ENDROOT
BRANCH   9  13
ATOM     13  C   UNL     1      19.624  12.535  32.924  0.00  0.00    +0.119 C 
BRANCH  13  14
ATOM     14  O   UNL     1      20.113  13.785  32.413  0.00  0.00    -0.460 OA
BRANCH  14  15
ATOM     15  C   UNL     1      19.181  14.627  31.903  0.00  0.00    +0.304 C 
ATOM     16  C   UNL     1      17.808  14.266  32.386  0.00  0.00    +0.033 C 
ATOM     17  O   UNL     1      19.399  15.572  31.155  0.00  0.00    -0.251 OA
ENDBRANCH  14  15
ENDBRANCH  13  14
ENDBRANCH   9  13
TORSDOF 3
ENDMDL
