MODEL 1
REMARK VINA RESULT:    -9.485      0.000      0.000
REMARK INTER + INTRA:         -13.184
REMARK INTER:                 -12.257
REMARK INTRA:                  -0.927
REMARK UNBOUND:                -0.927
REMARK  Name = 15d.sdf
REMARK  5 active torsions:
REMARK  status: ('A' for Active; 'I' for Inactive)
REMARK    1  A    between atoms: C_9  and  C_10
REMARK    2  A    between atoms: C_10  and  O_11
REMARK    3  A    between atoms: O_11  and  C_12
REMARK    4  A    between atoms: C_12  and  C_13
REMARK    5  A    between atoms: C_15  and  C_16
REMARK                            x       y       z     vdW  Elec       q    Type
REMARK                         _______ _______ _______ _____ _____    ______ ____
ROOT
ATOM      1  C   UNL     1      19.125   9.471  33.225  0.00  0.00    -0.061 A 
ATOM      2  C   UNL     1      19.066   8.167  32.754  0.00  0.00    -0.060 A 
ATOM      3  C   UNL     1      20.076   7.653  31.934  0.00  0.00    -0.037 A 
ATOM      4  C   UNL     1      21.155   8.489  31.589  0.00  0.00    +0.057 A 
ATOM      5  C   UNL     1      21.231   9.809  32.059  0.00  0.00    +0.007 A 
ATOM      6  C   UNL     1      20.201  10.297  32.887  0.00  0.00    -0.052 A 
ATOM      7  N   UNL     1      22.313   8.232  30.855  0.00  0.00    -0.283 N 
ATOM      8  C   UNL     1      23.052   9.407  30.807  0.00  0.00    +0.020 A 
ATOM      9  C   UNL     1      22.437  10.385  31.559  0.00  0.00    +0.015 A 
ATOM     10  C   UNL     1      22.705   6.998  30.277  0.00  0.00    +0.263 C 
ATOM     11  O   UNL     1      21.835   6.173  30.009  0.00  0.00    -0.267 OA
ENDROOT
BRANCH  10  12
ATOM     12  C   UNL     1      24.124   6.656  29.989  0.00  0.00    +0.040 A 
ATOM     13  C   UNL     1      24.716   7.068  28.787  0.00  0.00    -0.049 A 
ATOM     14  C   UNL     1      26.026   6.696  28.490  0.00  0.00    -0.061 A 
ATOM     15  C   UNL     1      26.757   5.942  29.405  0.00  0.00    -0.062 A 
ATOM     16  C   UNL     1      26.191   5.583  30.630  0.00  0.00    -0.061 A 
ATOM     17  C   UNL     1      24.876   5.946  30.930  0.00  0.00    -0.049 A 
ENDBRANCH  10  12
BRANCH   9  18
ATOM     18  C   UNL     1      22.956  11.765  31.826  0.00  0.00    +0.120 C 
BRANCH  18  19
ATOM     19  O   UNL     1      22.183  12.766  31.144  0.00  0.00    -0.456 OA
BRANCH  19  20
ATOM     20  C   UNL     1      21.999  13.929  31.809  0.00  0.00    +0.339 C 
ATOM     21  O   UNL     1      22.867  14.605  32.335  0.00  0.00    -0.245 OA
BRANCH  20  22
ATOM     22  C   UNL     1      20.556  14.299  31.847  0.00  0.00    +0.059 A 
ATOM     23  C   UNL     1      20.124  15.373  31.055  0.00  0.00    -0.048 A 
ATOM     24  C   UNL     1      18.787  15.775  31.076  0.00  0.00    -0.061 A 
ATOM     25  C   UNL     1      17.870  15.101  31.881  0.00  0.00    -0.062 A 
ATOM     26  C   UNL     1      18.286  14.020  32.658  0.00  0.00    -0.061 A 
ATOM     27  C   UNL     1      19.625  13.618  32.643  0.00  0.00    -0.048 A 
ENDBRANCH  20  22
ENDBRANCH  19  20
ENDBRANCH  18  19
ENDBRANCH   9  18
TORSDOF 5
ENDMDL
