MODEL 1
REMARK VINA RESULT:    -5.518      0.000      0.000
REMARK INTER + INTRA:          -5.894
REMARK INTER:                  -5.841
REMARK INTRA:                  -0.054
REMARK UNBOUND:                -0.054
REMARK  Name = 1.sdf
REMARK  1 active torsions:
REMARK  status: ('A' for Active; 'I' for Inactive)
REMARK    1  A    between atoms: C_9  and  C_10
REMARK                            x       y       z     vdW  Elec       q    Type
REMARK                         _______ _______ _______ _____ _____    ______ ____
ROOT
ATOM      1  C   UNL     1      20.031  10.192  32.624  0.00  0.00    -0.061 A 
ATOM      2  C   UNL     1      19.114   9.218  33.007  0.00  0.00    -0.060 A 
ATOM      3  C   UNL     1      19.453   7.863  32.990  0.00  0.00    -0.038 A 
ATOM      4  C   UNL     1      20.744   7.521  32.569  0.00  0.00    +0.047 A 
ATOM      5  C   UNL     1      21.688   8.472  32.176  0.00  0.00    +0.010 A 
ATOM      6  C   UNL     1      21.320   9.834  32.209  0.00  0.00    -0.052 A 
ATOM      7  N   UNL     1      21.337   6.286  32.451  0.00  0.00    -0.360 N 
ATOM      8  C   UNL     1      22.617   6.419  31.988  0.00  0.00    +0.013 A 
ATOM      9  C   UNL     1      22.877   7.765  31.807  0.00  0.00    +0.039 A 
ATOM     10  H   UNL     1      20.903   5.428  32.667  0.00  0.00    +0.000 HD
ENDROOT
BRANCH   9  11
ATOM     11  C   UNL     1      24.129   8.317  31.328  0.00  0.00    +0.152 C 
ATOM     12  O   UNL     1      24.846   9.066  31.985  0.00  0.00    -0.296 OA
ENDBRANCH   9  11
TORSDOF 1
ENDMDL
