MODEL 1
REMARK VINA RESULT:    -7.366      0.000      0.000
REMARK INTER + INTRA:          -9.219
REMARK INTER:                  -8.658
REMARK INTRA:                  -0.561
REMARK UNBOUND:                -0.561
REMARK  Name = 1b.sdf
REMARK  3 active torsions:
REMARK  status: ('A' for Active; 'I' for Inactive)
REMARK    1  A    between atoms: N_7  and  C_12
REMARK    2  A    between atoms: C_9  and  C_10
REMARK    3  A    between atoms: C_12  and  C_13
REMARK                            x       y       z     vdW  Elec       q    Type
REMARK                         _______ _______ _______ _____ _____    ______ ____
ROOT
ATOM      1  C   UNL     1      19.727   7.858  32.166  0.00  0.00    -0.061 A 
ATOM      2  C   UNL     1      18.926   8.747  32.872  0.00  0.00    -0.060 A 
ATOM      3  C   UNL     1      19.301  10.086  33.027  0.00  0.00    -0.038 A 
ATOM      4  C   UNL     1      20.508  10.514  32.447  0.00  0.00    +0.050 A 
ATOM      5  C   UNL     1      21.309   9.642  31.696  0.00  0.00    +0.010 A 
ATOM      6  C   UNL     1      20.912   8.295  31.568  0.00  0.00    -0.052 A 
ATOM      7  N   UNL     1      21.155  11.736  32.471  0.00  0.00    -0.342 N 
ATOM      8  C   UNL     1      22.292  11.675  31.706  0.00  0.00    +0.016 A 
ATOM      9  C   UNL     1      22.423  10.394  31.210  0.00  0.00    +0.039 A 
ENDROOT
BRANCH   9  10
ATOM     10  C   UNL     1      23.506   9.932  30.366  0.00  0.00    +0.152 C 
ATOM     11  O   UNL     1      23.344   9.427  29.257  0.00  0.00    -0.296 OA
ENDBRANCH   9  10
BRANCH   7  12
ATOM     12  C   UNL     1      20.790  12.893  33.286  0.00  0.00    +0.048 C 
BRANCH  12  13
ATOM     13  C   UNL     1      19.939  13.875  32.527  0.00  0.00    -0.025 A 
ATOM     14  C   UNL     1      20.520  14.817  31.674  0.00  0.00    -0.039 A 
ATOM     15  C   UNL     1      19.700  15.730  31.030  0.00  0.00    +0.028 A 
ATOM     16  N   UNL     1      18.359  15.760  31.164  0.00  0.00    -0.263 NA
ATOM     17  C   UNL     1      17.811  14.835  31.981  0.00  0.00    +0.028 A 
ATOM     18  C   UNL     1      18.547  13.885  32.672  0.00  0.00    -0.039 A 
ENDBRANCH  12  13
ENDBRANCH   7  12
TORSDOF 3
ENDMDL
