MODEL 1
REMARK VINA RESULT:    -7.949      0.000      0.000
REMARK INTER + INTRA:          -9.771
REMARK INTER:                  -9.343
REMARK INTRA:                  -0.428
REMARK UNBOUND:                -0.428
REMARK  Name = 1c.sdf
REMARK  3 active torsions:
REMARK  status: ('A' for Active; 'I' for Inactive)
REMARK    1  A    between atoms: N_7  and  C_12
REMARK    2  A    between atoms: C_9  and  C_10
REMARK    3  A    between atoms: C_12  and  C_13
REMARK                            x       y       z     vdW  Elec       q    Type
REMARK                         _______ _______ _______ _____ _____    ______ ____
ROOT
ATOM      1  C   UNL     1      18.153  15.772  31.154  0.00  0.00    -0.061 A 
ATOM      2  C   UNL     1      17.652  14.952  32.160  0.00  0.00    -0.060 A 
ATOM      3  C   UNL     1      18.481  14.058  32.853  0.00  0.00    -0.038 A 
ATOM      4  C   UNL     1      19.837  13.978  32.489  0.00  0.00    +0.050 A 
ATOM      5  C   UNL     1      20.373  14.842  31.520  0.00  0.00    +0.010 A 
ATOM      6  C   UNL     1      19.515  15.740  30.847  0.00  0.00    -0.052 A 
ATOM      7  N   UNL     1      20.870  13.143  32.899  0.00  0.00    -0.342 N 
ATOM      8  C   UNL     1      22.041  13.536  32.292  0.00  0.00    +0.016 A 
ATOM      9  C   UNL     1      21.768  14.587  31.441  0.00  0.00    +0.039 A 
ENDROOT
BRANCH   9  10
ATOM     10  C   UNL     1      22.749  15.273  30.618  0.00  0.00    +0.152 C 
ATOM     11  O   UNL     1      22.781  15.203  29.396  0.00  0.00    -0.296 OA
ENDBRANCH   9  10
BRANCH   7  12
ATOM     12  C   UNL     1      20.775  11.920  33.703  0.00  0.00    +0.048 C 
BRANCH  12  13
ATOM     13  C   UNL     1      21.017  10.675  32.883  0.00  0.00    -0.028 A 
ATOM     14  C   UNL     1      19.932   9.922  32.417  0.00  0.00    -0.055 A 
ATOM     15  C   UNL     1      20.135   8.662  31.850  0.00  0.00    -0.043 A 
ATOM     16  C   UNL     1      21.429   8.167  31.711  0.00  0.00    +0.041 A 
ATOM     17  C   UNL     1      22.525   8.952  32.061  0.00  0.00    -0.043 A 
ATOM     18  C   UNL     1      22.320  10.207  32.643  0.00  0.00    -0.055 A 
ATOM     19 CL   UNL     1      21.670   6.555  31.161  0.00  0.00    -0.084 Cl
ENDBRANCH  12  13
ENDBRANCH   7  12
TORSDOF 3
ENDMDL
