MODEL 1
REMARK VINA RESULT:    -7.884      0.000      0.000
REMARK INTER + INTRA:          -9.129
REMARK INTER:                  -8.805
REMARK INTRA:                  -0.323
REMARK UNBOUND:                -0.323
REMARK  Name = 1d.sdf
REMARK  2 active torsions:
REMARK  status: ('A' for Active; 'I' for Inactive)
REMARK    1  A    between atoms: C_9  and  C_10
REMARK    2  A    between atoms: C_12  and  C_13
REMARK                            x       y       z     vdW  Elec       q    Type
REMARK                         _______ _______ _______ _____ _____    ______ ____
ROOT
ATOM      1  C   UNL     1      19.898   7.673  32.426  0.00  0.00    -0.061 A 
ATOM      2  C   UNL     1      19.331   8.559  33.332  0.00  0.00    -0.060 A 
ATOM      3  C   UNL     1      19.733   9.898  33.374  0.00  0.00    -0.037 A 
ATOM      4  C   UNL     1      20.725  10.333  32.475  0.00  0.00    +0.057 A 
ATOM      5  C   UNL     1      21.304   9.454  31.549  0.00  0.00    +0.011 A 
ATOM      6  C   UNL     1      20.881   8.105  31.532  0.00  0.00    -0.052 A 
ATOM      7  N   UNL     1      21.266  11.603  32.255  0.00  0.00    -0.282 N 
ATOM      8  C   UNL     1      22.215  11.487  31.256  0.00  0.00    +0.024 A 
ATOM      9  C   UNL     1      22.248  10.193  30.784  0.00  0.00    +0.040 A 
ATOM     10  C   UNL     1      20.912  12.812  32.905  0.00  0.00    +0.263 C 
ATOM     11  O   UNL     1      20.383  12.750  34.012  0.00  0.00    -0.267 OA
ENDROOT
BRANCH  10  12
ATOM     12  C   UNL     1      21.151  14.149  32.301  0.00  0.00    +0.040 A 
ATOM     13  C   UNL     1      20.193  14.714  31.448  0.00  0.00    -0.049 A 
ATOM     14  C   UNL     1      20.442  15.939  30.834  0.00  0.00    -0.061 A 
ATOM     15  C   UNL     1      21.630  16.619  31.098  0.00  0.00    -0.062 A 
ATOM     16  C   UNL     1      22.559  16.088  31.994  0.00  0.00    -0.061 A 
ATOM     17  C   UNL     1      22.321  14.854  32.604  0.00  0.00    -0.049 A 
ENDBRANCH  10  12
BRANCH   9  18
ATOM     18  C   UNL     1      23.105   9.726  29.708  0.00  0.00    +0.152 C 
ATOM     19  O   UNL     1      23.941   8.836  29.844  0.00  0.00    -0.296 OA
ENDBRANCH   9  18
TORSDOF 2
ENDMDL
