MODEL 1
REMARK VINA RESULT:    -8.481      0.000      0.000
REMARK INTER + INTRA:         -12.844
REMARK INTER:                 -11.951
REMARK INTRA:                  -0.893
REMARK UNBOUND:                -0.893
REMARK  Name = 23c.sdf
REMARK  9 active torsions:
REMARK  status: ('A' for Active; 'I' for Inactive)
REMARK    1  A    between atoms: N_7  and  C_12
REMARK    2  A    between atoms: C_9  and  C_10
REMARK    3  A    between atoms: N_11  and  N_19
REMARK    4  A    between atoms: C_12  and  C_13
REMARK    5  A    between atoms: C_20  and  C_22
REMARK    6  A    between atoms: C_24  and  O_30
REMARK    7  A    between atoms: C_25  and  O_29
REMARK    8  A    between atoms: O_29  and  C_32
REMARK    9  A    between atoms: O_30  and  C_31
REMARK                            x       y       z     vdW  Elec       q    Type
REMARK                         _______ _______ _______ _____ _____    ______ ____
ROOT
ATOM      1  C   UNL     1      19.667   7.550  32.326  0.00  0.00    -0.061 A 
ATOM      2  C   UNL     1      18.877   8.504  32.955  0.00  0.00    -0.060 A 
ATOM      3  C   UNL     1      19.361   9.793  33.197  0.00  0.00    -0.038 A 
ATOM      4  C   UNL     1      20.667  10.105  32.781  0.00  0.00    +0.050 A 
ATOM      5  C   UNL     1      21.466   9.172  32.106  0.00  0.00    +0.009 A 
ATOM      6  C   UNL     1      20.956   7.873  31.891  0.00  0.00    -0.052 A 
ATOM      7  N   UNL     1      21.421  11.256  32.918  0.00  0.00    -0.342 N 
ATOM      8  C   UNL     1      22.632  11.096  32.290  0.00  0.00    +0.015 A 
ATOM      9  C   UNL     1      22.696   9.820  31.766  0.00  0.00    +0.020 A 
ENDROOT
BRANCH   9  10
ATOM     10  C   UNL     1      23.803   9.262  31.019  0.00  0.00    +0.055 C 
ATOM     11  N   UNL     1      24.466   8.262  31.502  0.00  0.00    -0.187 NA
BRANCH  11  12
ATOM     12  N   UNL     1      25.501   7.802  30.732  0.00  0.00    -0.203 N 
ATOM     13  C   UNL     1      25.432   6.527  30.186  0.00  0.00    +0.263 C 
ATOM     14  O   UNL     1      24.489   5.751  30.316  0.00  0.00    -0.268 OA
ATOM     15  H   UNL     1      26.289   8.370  30.567  0.00  0.00    +0.000 HD
BRANCH  13  16
ATOM     16  C   UNL     1      26.589   6.118  29.339  0.00  0.00    +0.042 A 
ATOM     17  C   UNL     1      26.788   4.790  28.941  0.00  0.00    -0.004 A 
ATOM     18  C   UNL     1      27.909   4.447  28.172  0.00  0.00    +0.162 A 
ATOM     19  C   UNL     1      28.826   5.445  27.779  0.00  0.00    +0.162 A 
ATOM     20  C   UNL     1      28.595   6.776  28.145  0.00  0.00    -0.016 A 
ATOM     21  C   UNL     1      27.483   7.108  28.922  0.00  0.00    -0.046 A 
BRANCH  19  22
ATOM     22  O   UNL     1      29.905   5.019  27.045  0.00  0.00    -0.491 OA
ATOM     23  C   UNL     1      30.516   5.951  26.164  0.00  0.00    +0.079 C 
ENDBRANCH  19  22
BRANCH  18  24
ATOM     24  O   UNL     1      28.201   3.169  27.759  0.00  0.00    -0.491 OA
ATOM     25  C   UNL     1      27.166   2.409  27.154  0.00  0.00    +0.079 C 
ENDBRANCH  18  24
ENDBRANCH  13  16
ENDBRANCH  11  12
ENDBRANCH   9  10
BRANCH   7  26
ATOM     26  C   UNL     1      21.059  12.441  33.694  0.00  0.00    +0.048 C 
BRANCH  26  27
ATOM     27  C   UNL     1      20.757  13.620  32.801  0.00  0.00    -0.028 A 
ATOM     28  C   UNL     1      19.435  13.929  32.450  0.00  0.00    -0.055 A 
ATOM     29  C   UNL     1      19.164  14.948  31.534  0.00  0.00    -0.043 A 
ATOM     30  C   UNL     1      20.212  15.673  30.975  0.00  0.00    +0.041 A 
ATOM     31  C   UNL     1      21.528  15.414  31.352  0.00  0.00    -0.043 A 
ATOM     32  C   UNL     1      21.800  14.391  32.264  0.00  0.00    -0.055 A 
ATOM     33 CL   UNL     1      19.881  16.881  29.796  0.00  0.00    -0.084 Cl
ENDBRANCH  26  27
ENDBRANCH   7  26
TORSDOF 7
ENDMDL
