MODEL 1
REMARK VINA RESULT:    -9.030      0.000      0.000
REMARK INTER + INTRA:         -12.747
REMARK INTER:                 -11.933
REMARK INTRA:                  -0.814
REMARK UNBOUND:                -0.814
REMARK  Name = 24a.sdf
REMARK  6 active torsions:
REMARK  status: ('A' for Active; 'I' for Inactive)
REMARK    1  A    between atoms: N_7  and  C_10
REMARK    2  A    between atoms: C_9  and  C_18
REMARK    3  A    between atoms: C_10  and  C_11
REMARK    4  A    between atoms: N_19  and  N_20
REMARK    5  A    between atoms: C_21  and  C_23
REMARK    6  A    between atoms: C_26  and  O_29
REMARK                            x       y       z     vdW  Elec       q    Type
REMARK                         _______ _______ _______ _____ _____    ______ ____
ROOT
ATOM      1  C   UNL     1      18.116  15.823  31.177  0.00  0.00    -0.061 A 
ATOM      2  C   UNL     1      17.785  15.011  32.251  0.00  0.00    -0.060 A 
ATOM      3  C   UNL     1      18.733  14.152  32.833  0.00  0.00    -0.038 A 
ATOM      4  C   UNL     1      20.030  14.099  32.272  0.00  0.00    +0.050 A 
ATOM      5  C   UNL     1      20.394  14.960  31.227  0.00  0.00    +0.009 A 
ATOM      6  C   UNL     1      19.420  15.828  30.678  0.00  0.00    -0.052 A 
ATOM      7  N   UNL     1      21.124  13.293  32.542  0.00  0.00    -0.342 N 
ATOM      8  C   UNL     1      22.185  13.704  31.763  0.00  0.00    +0.015 A 
ATOM      9  C   UNL     1      21.783  14.749  30.956  0.00  0.00    +0.020 A 
ENDROOT
BRANCH   9  10
ATOM     10  C   UNL     1      22.617  15.479  30.019  0.00  0.00    +0.055 C 
ATOM     11  N   UNL     1      22.424  15.359  28.746  0.00  0.00    -0.187 NA
BRANCH  11  12
ATOM     12  N   UNL     1      23.275  16.065  27.939  0.00  0.00    -0.203 N 
ATOM     13  C   UNL     1      24.310  15.406  27.287  0.00  0.00    +0.263 C 
ATOM     14  O   UNL     1      24.533  14.197  27.367  0.00  0.00    -0.268 OA
ATOM     15  H   UNL     1      23.153  17.035  27.821  0.00  0.00    +0.000 HD
BRANCH  13  16
ATOM     16  C   UNL     1      25.179  16.235  26.405  0.00  0.00    +0.039 A 
ATOM     17  C   UNL     1      24.766  17.473  25.891  0.00  0.00    -0.046 A 
ATOM     18  C   UNL     1      25.610  18.200  25.044  0.00  0.00    -0.019 A 
ATOM     19  C   UNL     1      26.867  17.693  24.723  0.00  0.00    +0.117 A 
ATOM     20  C   UNL     1      27.307  16.489  25.258  0.00  0.00    -0.019 A 
ATOM     21  C   UNL     1      26.464  15.761  26.101  0.00  0.00    -0.046 A 
BRANCH  19  22
ATOM     22  O   UNL     1      27.708  18.355  23.879  0.00  0.00    -0.507 OA
ATOM     23  H   UNL     1      28.635  18.273  23.983  0.00  0.00    +0.000 HD
ENDBRANCH  19  22
ENDBRANCH  13  16
ENDBRANCH  11  12
ENDBRANCH   9  10
BRANCH   7  24
ATOM     24  C   UNL     1      21.177  12.096  33.388  0.00  0.00    +0.048 C 
BRANCH  24  25
ATOM     25  C   UNL     1      21.415  10.831  32.594  0.00  0.00    -0.028 A 
ATOM     26  C   UNL     1      20.332  10.055  32.157  0.00  0.00    -0.056 A 
ATOM     27  C   UNL     1      20.543   8.783  31.622  0.00  0.00    -0.047 A 
ATOM     28  C   UNL     1      21.841   8.297  31.482  0.00  0.00    +0.018 A 
ATOM     29  C   UNL     1      22.932   9.105  31.793  0.00  0.00    -0.047 A 
ATOM     30  C   UNL     1      22.719  10.371  32.345  0.00  0.00    -0.056 A 
ATOM     31 BR   UNL     1      22.118   6.505  30.951  0.00  0.00    -0.050 Br
ENDBRANCH  24  25
ENDBRANCH   7  24
TORSDOF 6
ENDMDL
