MODEL 1
REMARK VINA RESULT:    -9.034      0.000      0.000
REMARK INTER + INTRA:         -12.848
REMARK INTER:                 -11.938
REMARK INTRA:                  -0.910
REMARK UNBOUND:                -0.910
REMARK  Name = 24c.sdf
REMARK  6 active torsions:
REMARK  status: ('A' for Active; 'I' for Inactive)
REMARK    1  A    between atoms: N_7  and  C_10
REMARK    2  A    between atoms: C_9  and  C_18
REMARK    3  A    between atoms: C_10  and  C_11
REMARK    4  A    between atoms: N_19  and  N_20
REMARK    5  A    between atoms: C_21  and  C_23
REMARK    6  A    between atoms: C_26  and  O_29
REMARK                            x       y       z     vdW  Elec       q    Type
REMARK                         _______ _______ _______ _____ _____    ______ ____
ROOT
ATOM      1  C   UNL     1      17.985  15.730  31.443  0.00  0.00    -0.061 A 
ATOM      2  C   UNL     1      17.718  14.895  32.521  0.00  0.00    -0.060 A 
ATOM      3  C   UNL     1      18.692  14.020  33.011  0.00  0.00    -0.038 A 
ATOM      4  C   UNL     1      19.954  14.010  32.392  0.00  0.00    +0.050 A 
ATOM      5  C   UNL     1      20.261  14.875  31.335  0.00  0.00    +0.009 A 
ATOM      6  C   UNL     1      19.251  15.735  30.850  0.00  0.00    -0.052 A 
ATOM      7  N   UNL     1      21.081  13.238  32.618  0.00  0.00    -0.342 N 
ATOM      8  C   UNL     1      22.097  13.647  31.794  0.00  0.00    +0.015 A 
ATOM      9  C   UNL     1      21.633  14.669  30.987  0.00  0.00    +0.020 A 
ENDROOT
BRANCH   9  10
ATOM     10  C   UNL     1      22.403  15.386  29.989  0.00  0.00    +0.055 C 
ATOM     11  N   UNL     1      22.276  15.082  28.739  0.00  0.00    -0.187 NA
BRANCH  11  12
ATOM     12  N   UNL     1      23.045  15.805  27.869  0.00  0.00    -0.203 N 
ATOM     13  C   UNL     1      24.264  15.296  27.449  0.00  0.00    +0.263 C 
ATOM     14  O   UNL     1      24.738  14.216  27.785  0.00  0.00    -0.268 OA
ATOM     15  H   UNL     1      22.735  16.682  27.544  0.00  0.00    +0.000 HD
BRANCH  13  16
ATOM     16  C   UNL     1      25.020  16.146  26.480  0.00  0.00    +0.039 A 
ATOM     17  C   UNL     1      24.464  17.293  25.891  0.00  0.00    -0.046 A 
ATOM     18  C   UNL     1      25.213  18.046  24.978  0.00  0.00    -0.019 A 
ATOM     19  C   UNL     1      26.513  17.657  24.669  0.00  0.00    +0.117 A 
ATOM     20  C   UNL     1      27.085  16.542  25.269  0.00  0.00    -0.019 A 
ATOM     21  C   UNL     1      26.340  15.788  26.177  0.00  0.00    -0.046 A 
BRANCH  19  22
ATOM     22  O   UNL     1      27.273  18.355  23.778  0.00  0.00    -0.507 OA
ATOM     23  H   UNL     1      28.010  17.946  23.370  0.00  0.00    +0.000 HD
ENDBRANCH  19  22
ENDBRANCH  13  16
ENDBRANCH  11  12
ENDBRANCH   9  10
BRANCH   7  24
ATOM     24  C   UNL     1      21.175  12.085  33.512  0.00  0.00    +0.048 C 
BRANCH  24  25
ATOM     25  C   UNL     1      21.373  10.800  32.747  0.00  0.00    -0.028 A 
ATOM     26  C   UNL     1      20.277  10.119  32.199  0.00  0.00    -0.055 A 
ATOM     27  C   UNL     1      20.448   8.877  31.582  0.00  0.00    -0.043 A 
ATOM     28  C   UNL     1      21.720   8.316  31.498  0.00  0.00    +0.041 A 
ATOM     29  C   UNL     1      22.827   9.002  31.991  0.00  0.00    -0.043 A 
ATOM     30  C   UNL     1      22.655  10.241  32.612  0.00  0.00    -0.055 A 
ATOM     31 CL   UNL     1      21.920   6.756  30.800  0.00  0.00    -0.084 Cl
ENDBRANCH  24  25
ENDBRANCH   7  24
TORSDOF 6
ENDMDL
