MODEL 1
REMARK VINA RESULT:    -8.335      0.000      0.000
REMARK INTER + INTRA:         -10.903
REMARK INTER:                 -10.284
REMARK INTRA:                  -0.620
REMARK UNBOUND:                -0.620
REMARK  Name = 2a.sdf
REMARK  4 active torsions:
REMARK  status: ('A' for Active; 'I' for Inactive)
REMARK    1  A    between atoms: N_7  and  C_12
REMARK    2  A    between atoms: C_9  and  C_10
REMARK    3  A    between atoms: C_11  and  C_20
REMARK    4  A    between atoms: C_12  and  C_13
REMARK                            x       y       z     vdW  Elec       q    Type
REMARK                         _______ _______ _______ _____ _____    ______ ____
ROOT
ATOM      1  C   UNL     1      18.143  15.730  31.209  0.00  0.00    -0.061 A 
ATOM      2  C   UNL     1      17.747  14.861  32.212  0.00  0.00    -0.060 A 
ATOM      3  C   UNL     1      18.671  14.010  32.834  0.00  0.00    -0.038 A 
ATOM      4  C   UNL     1      20.000  13.970  32.368  0.00  0.00    +0.050 A 
ATOM      5  C   UNL     1      20.428  14.886  31.391  0.00  0.00    +0.007 A 
ATOM      6  C   UNL     1      19.483  15.780  30.824  0.00  0.00    -0.052 A 
ATOM      7  N   UNL     1      21.087  13.162  32.678  0.00  0.00    -0.342 N 
ATOM      8  C   UNL     1      22.199  13.624  31.993  0.00  0.00    +0.013 A 
ATOM      9  C   UNL     1      21.832  14.696  31.216  0.00  0.00    +0.000 A 
ENDROOT
BRANCH   9  10
ATOM     10  C   UNL     1      22.685  15.495  30.384  0.00  0.00    -0.046 C 
ATOM     11  C   UNL     1      22.773  15.431  29.048  0.00  0.00    +0.023 C 
BRANCH  11  12
ATOM     12  C   UNL     1      23.638  16.237  28.159  0.00  0.00    +0.330 C 
ATOM     13  O   UNL     1      24.173  15.591  27.103  0.00  0.00    -0.478 OA
ATOM     14  O   UNL     1      23.814  17.417  28.359  0.00  0.00    -0.246 OA
ENDBRANCH  11  12
ENDBRANCH   9  10
BRANCH   7  15
ATOM     15  C   UNL     1      21.125  11.904  33.450  0.00  0.00    +0.048 C 
BRANCH  15  16
ATOM     16  C   UNL     1      21.432  10.680  32.618  0.00  0.00    -0.028 A 
ATOM     17  C   UNL     1      20.389   9.893  32.106  0.00  0.00    -0.056 A 
ATOM     18  C   UNL     1      20.649   8.618  31.595  0.00  0.00    -0.047 A 
ATOM     19  C   UNL     1      21.962   8.157  31.532  0.00  0.00    +0.018 A 
ATOM     20  C   UNL     1      23.021   8.985  31.897  0.00  0.00    -0.047 A 
ATOM     21  C   UNL     1      22.758  10.247  32.437  0.00  0.00    -0.056 A 
ATOM     22 BR   UNL     1      22.303   6.357  31.061  0.00  0.00    -0.050 Br
ENDBRANCH  15  16
ENDBRANCH   7  15
TORSDOF 4
ENDMDL
