MODEL 1
REMARK VINA RESULT:    -6.446      0.000      0.000
REMARK INTER + INTRA:          -7.872
REMARK INTER:                  -7.765
REMARK INTRA:                  -0.106
REMARK UNBOUND:                -0.106
REMARK  Name = 3.sdf
REMARK  4 active torsions:
REMARK  status: ('A' for Active; 'I' for Inactive)
REMARK    1  A    between atoms: CG_9  and  CB_10
REMARK    2  A    between atoms: CB_10  and  CA_11
REMARK    3  A    between atoms: CA_11  and  C_12
REMARK    4  A    between atoms: CA_11  and  N_15
REMARK                            x       y       z     vdW  Elec       q    Type
REMARK                         _______ _______ _______ _____ _____    ______ ____
ROOT
ATOM      1  CZ3 TRP A   1      22.333  11.322  32.258  0.00  0.00    -0.061 A 
ATOM      2  CH2 TRP A   1      21.213  12.082  32.586  0.00  0.00    -0.060 A 
ATOM      3  CZ2 TRP A   1      19.992  11.470  32.877  0.00  0.00    -0.038 A 
ATOM      4  CE2 TRP A   1      19.941  10.072  32.841  0.00  0.00    +0.047 A 
ATOM      5  CD2 TRP A   1      21.049   9.278  32.544  0.00  0.00    +0.003 A 
ATOM      6  CE3 TRP A   1      22.266   9.922  32.235  0.00  0.00    -0.052 A 
ATOM      7  NE1 TRP A   1      18.888   9.222  33.075  0.00  0.00    -0.360 N 
ATOM      8  CD1 TRP A   1      19.299   7.922  32.988  0.00  0.00    +0.006 A 
ATOM      9  CG  TRP A   1      20.643   7.904  32.667  0.00  0.00    -0.020 A 
ATOM     10  HE1 TRP A   1      17.968   9.510  33.276  0.00  0.00    +0.000 HD
ENDROOT
BRANCH   9  11
ATOM     11  CB  TRP A   1      21.531   6.698  32.536  0.00  0.00    -0.000 C 
BRANCH  11  12
ATOM     12  CA  TRP A   1      22.448   6.685  31.306  0.00  0.00    +0.107 C 
BRANCH  12  13
ATOM     13  N   TRP A   1      21.907   5.801  30.239  0.00  0.00    -0.318 N 
ATOM     14  H1  TRP A   1      21.274   5.117  30.653  0.00  0.00    +0.000 HD
ATOM     15  H2  TRP A   1      22.677   5.314  29.778  0.00  0.00    +0.000 HD
ATOM     16  H3  TRP A   1      21.402   6.363  29.555  0.00  0.00    +0.000 HD
ENDBRANCH  12  13
BRANCH  12  17
ATOM     17  C   TRP A   1      23.885   6.260  31.644  0.00  0.00    +0.322 C 
ATOM     18  O   TRP A   1      24.795   7.262  31.551  0.00  0.00    -0.480 OA
ATOM     19  OXT TRP A   1      24.187   5.151  32.063  0.00  0.00    -0.249 OA
ENDBRANCH  12  17
ENDBRANCH  11  12
ENDBRANCH   9  11
TORSDOF 4
ENDMDL
