MODEL 1
REMARK VINA RESULT:    -8.341      0.000      0.000
REMARK INTER + INTRA:         -11.518
REMARK INTER:                 -11.023
REMARK INTRA:                  -0.496
REMARK UNBOUND:                -0.496
REMARK  Name = 3a.sdf
REMARK  6 active torsions:
REMARK  status: ('A' for Active; 'I' for Inactive)
REMARK    1  A    between atoms: N_7  and  C_12
REMARK    2  A    between atoms: C_9  and  C_10
REMARK    3  A    between atoms: C_10  and  CA_11
REMARK    4  A    between atoms: CA_11  and  C_20
REMARK    5  A    between atoms: CA_11  and  N_23
REMARK    6  A    between atoms: C_12  and  C_13
REMARK                            x       y       z     vdW  Elec       q    Type
REMARK                         _______ _______ _______ _____ _____    ______ ____
ROOT
ATOM      1  C   UNL     1      19.988   7.474  32.640  0.00  0.00    -0.061 A 
ATOM      2  C   UNL     1      18.939   8.345  32.916  0.00  0.00    -0.060 A 
ATOM      3  C   UNL     1      19.164   9.718  33.055  0.00  0.00    -0.038 A 
ATOM      4  C   UNL     1      20.473  10.202  32.890  0.00  0.00    +0.050 A 
ATOM      5  C   UNL     1      21.537   9.348  32.576  0.00  0.00    +0.003 A 
ATOM      6  C   UNL     1      21.286   7.963  32.468  0.00  0.00    -0.052 A 
ATOM      7  N   UNL     1      21.007  11.468  33.019  0.00  0.00    -0.342 N 
ATOM      8  C   UNL     1      22.323  11.460  32.625  0.00  0.00    +0.009 A 
ATOM      9  C   UNL     1      22.718  10.150  32.448  0.00  0.00    -0.020 A 
ENDROOT
BRANCH   9  10
ATOM     10  C   UNL     1      24.104   9.646  32.181  0.00  0.00    -0.000 C 
BRANCH  10  11
ATOM     11  CA  UNL     1      24.353   9.089  30.766  0.00  0.00    +0.107 C 
BRANCH  11  12
ATOM     12  N   UNL     1      25.771   8.654  30.657  0.00  0.00    -0.318 N 
ATOM     13  H1  UNL     1      26.216   8.714  31.573  0.00  0.00    +0.000 HD
ATOM     14  H2  UNL     1      26.262   9.260  30.000  0.00  0.00    +0.000 HD
ATOM     15  H3  UNL     1      25.807   7.690  30.324  0.00  0.00    +0.000 HD
ENDBRANCH  11  12
BRANCH  11  16
ATOM     16  C   UNL     1      23.980  10.107  29.659  0.00  0.00    +0.322 C 
ATOM     17  O   UNL     1      24.903  11.085  29.491  0.00  0.00    -0.480 OA
ATOM     18  OXT UNL     1      22.984  10.051  28.947  0.00  0.00    -0.249 OA
ENDBRANCH  11  16
ENDBRANCH  10  11
ENDBRANCH   9  10
BRANCH   7  19
ATOM     19  C   UNL     1      20.365  12.625  33.638  0.00  0.00    +0.048 C 
BRANCH  19  20
ATOM     20  C   UNL     1      20.333  13.809  32.705  0.00  0.00    -0.028 A 
ATOM     21  C   UNL     1      19.113  14.267  32.187  0.00  0.00    -0.056 A 
ATOM     22  C   UNL     1      19.085  15.276  31.225  0.00  0.00    -0.047 A 
ATOM     23  C   UNL     1      20.279  15.847  30.790  0.00  0.00    +0.018 A 
ATOM     24  C   UNL     1      21.495  15.448  31.339  0.00  0.00    -0.047 A 
ATOM     25  C   UNL     1      21.522  14.431  32.296  0.00  0.00    -0.056 A 
ATOM     26 BR   UNL     1      20.248  17.147  29.420  0.00  0.00    -0.050 Br
ENDBRANCH  19  20
ENDBRANCH   7  19
TORSDOF 6
ENDMDL
