MODEL 1
REMARK VINA RESULT:    -7.496      0.000      0.000
REMARK INTER + INTRA:          -9.599
REMARK INTER:                  -9.029
REMARK INTRA:                  -0.570
REMARK UNBOUND:                -0.570
REMARK  Name = 4b.sdf
REMARK  4 active torsions:
REMARK  status: ('A' for Active; 'I' for Inactive)
REMARK    1  A    between atoms: N_7  and  C_11
REMARK    2  A    between atoms: C_9  and  C_10
REMARK    3  A    between atoms: C_10  and  O_18
REMARK    4  A    between atoms: C_11  and  C_12
REMARK                            x       y       z     vdW  Elec       q    Type
REMARK                         _______ _______ _______ _____ _____    ______ ____
ROOT
ATOM      1  C   UNL     1      19.814   7.910  32.314  0.00  0.00    -0.061 A 
ATOM      2  C   UNL     1      19.102   8.828  33.080  0.00  0.00    -0.060 A 
ATOM      3  C   UNL     1      19.455  10.184  33.104  0.00  0.00    -0.038 A 
ATOM      4  C   UNL     1      20.568  10.600  32.352  0.00  0.00    +0.050 A 
ATOM      5  C   UNL     1      21.250   9.701  31.522  0.00  0.00    +0.005 A 
ATOM      6  C   UNL     1      20.871   8.340  31.516  0.00  0.00    -0.052 A 
ATOM      7  N   UNL     1      21.226  11.816  32.245  0.00  0.00    -0.342 N 
ATOM      8  C   UNL     1      22.223  11.712  31.303  0.00  0.00    +0.011 A 
ATOM      9  C   UNL     1      22.256  10.430  30.814  0.00  0.00    +0.003 A 
ENDROOT
BRANCH   9  10
ATOM     10  C   UNL     1      23.184   9.871  29.789  0.00  0.00    +0.071 C 
BRANCH  10  11
ATOM     11  O   UNL     1      22.993  10.473  28.513  0.00  0.00    -0.390 OA
ATOM     12  H   UNL     1      23.833  10.847  28.204  0.00  0.00    +0.000 HD
ENDBRANCH  10  11
ENDBRANCH   9  10
BRANCH   7  13
ATOM     13  C   UNL     1      21.048  12.999  33.094  0.00  0.00    +0.048 C 
BRANCH  13  14
ATOM     14  C   UNL     1      20.072  13.984  32.499  0.00  0.00    -0.025 A 
ATOM     15  C   UNL     1      18.713  13.911  32.814  0.00  0.00    -0.039 A 
ATOM     16  C   UNL     1      17.827  14.746  32.152  0.00  0.00    +0.028 A 
ATOM     17  N   UNL     1      18.202  15.668  31.242  0.00  0.00    -0.263 NA
ATOM     18  C   UNL     1      19.523  15.763  30.986  0.00  0.00    +0.028 A 
ATOM     19  C   UNL     1      20.484  14.960  31.584  0.00  0.00    -0.039 A 
ENDBRANCH  13  14
ENDBRANCH   7  13
TORSDOF 4
ENDMDL
