MODEL 1
REMARK VINA RESULT:    -7.887      0.000      0.000
REMARK INTER + INTRA:         -10.076
REMARK INTER:                  -9.501
REMARK INTRA:                  -0.575
REMARK UNBOUND:                -0.575
REMARK  Name = 4c.sdf
REMARK  4 active torsions:
REMARK  status: ('A' for Active; 'I' for Inactive)
REMARK    1  A    between atoms: N_7  and  C_11
REMARK    2  A    between atoms: C_9  and  C_10
REMARK    3  A    between atoms: C_10  and  O_19
REMARK    4  A    between atoms: C_11  and  C_12
REMARK                            x       y       z     vdW  Elec       q    Type
REMARK                         _______ _______ _______ _____ _____    ______ ____
ROOT
ATOM      1  C   UNL     1      22.295  15.871  30.444  0.00  0.00    -0.061 A 
ATOM      2  C   UNL     1      23.047  14.837  30.989  0.00  0.00    -0.060 A 
ATOM      3  C   UNL     1      22.462  13.880  31.822  0.00  0.00    -0.038 A 
ATOM      4  C   UNL     1      21.085  13.981  32.086  0.00  0.00    +0.050 A 
ATOM      5  C   UNL     1      20.300  14.988  31.517  0.00  0.00    +0.005 A 
ATOM      6  C   UNL     1      20.922  15.955  30.698  0.00  0.00    -0.052 A 
ATOM      7  N   UNL     1      20.248  13.226  32.889  0.00  0.00    -0.342 N 
ATOM      8  C   UNL     1      18.963  13.691  32.788  0.00  0.00    +0.011 A 
ATOM      9  C   UNL     1      18.948  14.783  31.942  0.00  0.00    +0.003 A 
ENDROOT
BRANCH   9  10
ATOM     10  C   UNL     1      17.766  15.604  31.554  0.00  0.00    +0.071 C 
BRANCH  10  11
ATOM     11  O   UNL     1      17.924  16.978  31.906  0.00  0.00    -0.390 OA
ATOM     12  H   UNL     1      17.119  17.293  32.346  0.00  0.00    +0.000 HD
ENDBRANCH  10  11
ENDBRANCH   9  10
BRANCH   7  13
ATOM     13  C   UNL     1      20.665  12.165  33.804  0.00  0.00    +0.048 C 
BRANCH  13  14
ATOM     14  C   UNL     1      20.846  10.848  33.089  0.00  0.00    -0.028 A 
ATOM     15  C   UNL     1      19.736  10.044  32.785  0.00  0.00    -0.055 A 
ATOM     16  C   UNL     1      19.906   8.791  32.193  0.00  0.00    -0.043 A 
ATOM     17  C   UNL     1      21.187   8.337  31.893  0.00  0.00    +0.041 A 
ATOM     18  C   UNL     1      22.298   9.137  32.153  0.00  0.00    -0.043 A 
ATOM     19  C   UNL     1      22.128  10.388  32.748  0.00  0.00    -0.055 A 
ATOM     20 CL   UNL     1      21.399   6.774  31.207  0.00  0.00    -0.084 Cl
ENDBRANCH  13  14
ENDBRANCH   7  13
TORSDOF 4
ENDMDL
