MODEL 1
REMARK VINA RESULT:    -7.660      0.000      0.000
REMARK INTER + INTRA:         -10.648
REMARK INTER:                  -9.899
REMARK INTRA:                  -0.749
REMARK UNBOUND:                -0.749
REMARK  Name = 5b.sdf
REMARK  6 active torsions:
REMARK  status: ('A' for Active; 'I' for Inactive)
REMARK    1  A    between atoms: N_7  and  C_12
REMARK    2  A    between atoms: C_9  and  C_10
REMARK    3  A    between atoms: C_11  and  C_19
REMARK    4  A    between atoms: C_12  and  C_13
REMARK    5  A    between atoms: C_19  and  O_20
REMARK    6  A    between atoms: O_20  and  C_22
REMARK                            x       y       z     vdW  Elec       q    Type
REMARK                         _______ _______ _______ _____ _____    ______ ____
ROOT
ATOM      1  C   UNL     1      19.579   7.861  32.279  0.00  0.00    -0.061 A 
ATOM      2  C   UNL     1      18.906   8.814  33.032  0.00  0.00    -0.060 A 
ATOM      3  C   UNL     1      19.360  10.135  33.091  0.00  0.00    -0.038 A 
ATOM      4  C   UNL     1      20.512  10.480  32.361  0.00  0.00    +0.050 A 
ATOM      5  C   UNL     1      21.182   9.546  31.561  0.00  0.00    +0.007 A 
ATOM      6  C   UNL     1      20.709   8.215  31.537  0.00  0.00    -0.052 A 
ATOM      7  N   UNL     1      21.211  11.670  32.262  0.00  0.00    -0.342 N 
ATOM      8  C   UNL     1      22.252  11.527  31.370  0.00  0.00    +0.013 A 
ATOM      9  C   UNL     1      22.258  10.227  30.911  0.00  0.00    +0.000 A 
ENDROOT
BRANCH   9  10
ATOM     10  C   UNL     1      23.166   9.651  29.957  0.00  0.00    -0.046 C 
ATOM     11  C   UNL     1      24.106   8.734  30.223  0.00  0.00    +0.023 C 
BRANCH  11  12
ATOM     12  C   UNL     1      25.052   8.162  29.239  0.00  0.00    +0.332 C 
ATOM     13  O   UNL     1      24.722   7.245  28.499  0.00  0.00    -0.246 OA
BRANCH  12  14
ATOM     14  O   UNL     1      26.269   8.756  29.269  0.00  0.00    -0.465 OA
ATOM     15  C   UNL     1      27.133   8.339  28.207  0.00  0.00    +0.082 C 
ENDBRANCH  12  14
ENDBRANCH  11  12
ENDBRANCH   9  10
BRANCH   7  16
ATOM     16  C   UNL     1      20.986  12.867  33.071  0.00  0.00    +0.048 C 
BRANCH  16  17
ATOM     17  C   UNL     1      20.079  13.857  32.391  0.00  0.00    -0.025 A 
ATOM     18  C   UNL     1      20.590  14.815  31.509  0.00  0.00    -0.039 A 
ATOM     19  C   UNL     1      19.723  15.739  30.948  0.00  0.00    +0.028 A 
ATOM     20  N   UNL     1      18.396  15.763  31.186  0.00  0.00    -0.263 NA
ATOM     21  C   UNL     1      17.915  14.821  32.023  0.00  0.00    +0.028 A 
ATOM     22  C   UNL     1      18.702  13.859  32.637  0.00  0.00    -0.039 A 
ENDBRANCH  16  17
ENDBRANCH   7  16
TORSDOF 5
ENDMDL
