MODEL 1
REMARK VINA RESULT:    -6.213      0.000      0.000
REMARK INTER + INTRA:          -7.597
REMARK INTER:                  -7.303
REMARK INTRA:                  -0.295
REMARK UNBOUND:                -0.295
REMARK  Name = 7.sdf
REMARK  4 active torsions:
REMARK  status: ('A' for Active; 'I' for Inactive)
REMARK    1  A    between atoms: C_9  and  C_10
REMARK    2  A    between atoms: C_10  and  C_11
REMARK    3  A    between atoms: C_11  and  O_13
REMARK    4  A    between atoms: O_13  and  C_14
REMARK                            x       y       z     vdW  Elec       q    Type
REMARK                         _______ _______ _______ _____ _____    ______ ____
ROOT
ATOM      1  C   UNL     1      19.655  10.027  32.636  0.00  0.00    -0.061 A 
ATOM      2  C   UNL     1      18.921   9.022  33.263  0.00  0.00    -0.060 A 
ATOM      3  C   UNL     1      19.392   7.707  33.298  0.00  0.00    -0.038 A 
ATOM      4  C   UNL     1      20.627   7.440  32.695  0.00  0.00    +0.047 A 
ATOM      5  C   UNL     1      21.396   8.426  32.074  0.00  0.00    +0.003 A 
ATOM      6  C   UNL     1      20.891   9.743  32.040  0.00  0.00    -0.052 A 
ATOM      7  N   UNL     1      21.314   6.256  32.577  0.00  0.00    -0.360 N 
ATOM      8  C   UNL     1      22.508   6.462  31.942  0.00  0.00    +0.006 A 
ATOM      9  C   UNL     1      22.603   7.802  31.613  0.00  0.00    -0.012 A 
ATOM     10  H   UNL     1      20.993   5.384  32.903  0.00  0.00    +0.000 HD
ENDROOT
BRANCH   9  11
ATOM     11  C   UNL     1      23.773   8.465  30.955  0.00  0.00    +0.072 C 
BRANCH  11  12
ATOM     12  C   UNL     1      23.530   8.877  29.518  0.00  0.00    +0.311 C 
ATOM     13  O   UNL     1      23.286  10.002  29.105  0.00  0.00    -0.250 OA
BRANCH  12  14
ATOM     14  O   UNL     1      23.606   7.761  28.727  0.00  0.00    -0.468 OA
ATOM     15  C   UNL     1      24.912   7.189  28.615  0.00  0.00    +0.082 C 
ENDBRANCH  12  14
ENDBRANCH  11  12
ENDBRANCH   9  11
TORSDOF 3
ENDMDL
