MODEL 1
REMARK VINA RESULT:    -8.184      0.000      0.000
REMARK INTER + INTRA:         -11.016
REMARK INTER:                 -10.576
REMARK INTRA:                  -0.440
REMARK UNBOUND:                -0.440
REMARK  Name = 7a.sdf
REMARK  6 active torsions:
REMARK  status: ('A' for Active; 'I' for Inactive)
REMARK    1  A    between atoms: N_7  and  C_12
REMARK    2  A    between atoms: C_9  and  C_10
REMARK    3  A    between atoms: C_10  and  C_11
REMARK    4  A    between atoms: C_11  and  O_21
REMARK    5  A    between atoms: C_12  and  C_13
REMARK    6  A    between atoms: O_21  and  C_22
REMARK                            x       y       z     vdW  Elec       q    Type
REMARK                         _______ _______ _______ _____ _____    ______ ____
ROOT
ATOM      1  C   UNL     1      20.380   7.105  32.581  0.00  0.00    -0.061 A 
ATOM      2  C   UNL     1      19.328   7.883  33.052  0.00  0.00    -0.060 A 
ATOM      3  C   UNL     1      19.466   9.272  33.201  0.00  0.00    -0.038 A 
ATOM      4  C   UNL     1      20.707   9.862  32.895  0.00  0.00    +0.050 A 
ATOM      5  C   UNL     1      21.757   9.099  32.360  0.00  0.00    +0.004 A 
ATOM      6  C   UNL     1      21.583   7.705  32.209  0.00  0.00    -0.052 A 
ATOM      7  N   UNL     1      21.186  11.157  33.031  0.00  0.00    -0.342 N 
ATOM      8  C   UNL     1      22.449  11.238  32.494  0.00  0.00    +0.010 A 
ATOM      9  C   UNL     1      22.834   9.988  32.053  0.00  0.00    -0.012 A 
ENDROOT
BRANCH   9  10
ATOM     10  C   UNL     1      24.127   9.650  31.376  0.00  0.00    +0.072 C 
BRANCH  10  11
ATOM     11  C   UNL     1      24.138   9.938  29.888  0.00  0.00    +0.311 C 
ATOM     12  O   UNL     1      24.836  10.771  29.317  0.00  0.00    -0.250 OA
BRANCH  11  13
ATOM     13  O   UNL     1      23.235   9.129  29.258  0.00  0.00    -0.468 OA
ATOM     14  C   UNL     1      23.751   7.830  28.946  0.00  0.00    +0.082 C 
ENDBRANCH  11  13
ENDBRANCH  10  11
ENDBRANCH   9  10
BRANCH   7  15
ATOM     15  C   UNL     1      20.563  12.276  33.746  0.00  0.00    +0.048 C 
BRANCH  15  16
ATOM     16  C   UNL     1      20.412  13.499  32.871  0.00  0.00    -0.028 A 
ATOM     17  C   UNL     1      19.138  13.905  32.452  0.00  0.00    -0.056 A 
ATOM     18  C   UNL     1      18.996  14.892  31.477  0.00  0.00    -0.047 A 
ATOM     19  C   UNL     1      20.127  15.505  30.944  0.00  0.00    +0.018 A 
ATOM     20  C   UNL     1      21.394  15.195  31.433  0.00  0.00    -0.047 A 
ATOM     21  C   UNL     1      21.536  14.195  32.397  0.00  0.00    -0.056 A 
ATOM     22 BR   UNL     1      19.947  16.702  29.492  0.00  0.00    -0.050 Br
ENDBRANCH  15  16
ENDBRANCH   7  15
TORSDOF 5
ENDMDL
