MODEL 1
REMARK VINA RESULT:    -8.502      0.000      0.000
REMARK INTER + INTRA:         -11.881
REMARK INTER:                 -10.987
REMARK INTRA:                  -0.894
REMARK UNBOUND:                -0.894
REMARK  Name = 8b.sdf
REMARK  5 active torsions:
REMARK  status: ('A' for Active; 'I' for Inactive)
REMARK    1  A    between atoms: N_7  and  C_12
REMARK    2  A    between atoms: C_9  and  C_10
REMARK    3  A    between atoms: N_11  and  N_19
REMARK    4  A    between atoms: C_12  and  C_13
REMARK    5  A    between atoms: C_20  and  C_22
REMARK                            x       y       z     vdW  Elec       q    Type
REMARK                         _______ _______ _______ _____ _____    ______ ____
ROOT
ATOM      1  C   UNL     1      19.665   7.530  32.489  0.00  0.00    -0.061 A 
ATOM      2  C   UNL     1      18.881   8.528  33.055  0.00  0.00    -0.060 A 
ATOM      3  C   UNL     1      19.371   9.830  33.209  0.00  0.00    -0.038 A 
ATOM      4  C   UNL     1      20.680  10.107  32.777  0.00  0.00    +0.050 A 
ATOM      5  C   UNL     1      21.466   9.129  32.153  0.00  0.00    +0.009 A 
ATOM      6  C   UNL     1      20.948   7.821  32.023  0.00  0.00    -0.052 A 
ATOM      7  N   UNL     1      21.453  11.253  32.855  0.00  0.00    -0.342 N 
ATOM      8  C   UNL     1      22.655  11.043  32.225  0.00  0.00    +0.015 A 
ATOM      9  C   UNL     1      22.694   9.744  31.759  0.00  0.00    +0.020 A 
ENDROOT
BRANCH   9  10
ATOM     10  C   UNL     1      23.781   9.139  31.017  0.00  0.00    +0.055 C 
ATOM     11  N   UNL     1      24.491   8.205  31.565  0.00  0.00    -0.187 NA
BRANCH  11  12
ATOM     12  N   UNL     1      25.504   7.699  30.803  0.00  0.00    -0.203 N 
ATOM     13  C   UNL     1      25.352   6.453  30.203  0.00  0.00    +0.263 C 
ATOM     14  O   UNL     1      24.356   5.747  30.283  0.00  0.00    -0.268 OA
ATOM     15  H   UNL     1      26.335   8.212  30.679  0.00  0.00    +0.000 HD
BRANCH  13  16
ATOM     16  C   UNL     1      26.502   5.995  29.370  0.00  0.00    +0.038 A 
ATOM     17  C   UNL     1      26.656   4.662  28.966  0.00  0.00    -0.049 A 
ATOM     18  C   UNL     1      27.763   4.285  28.197  0.00  0.00    -0.047 A 
ATOM     19  C   UNL     1      28.709   5.241  27.824  0.00  0.00    +0.018 A 
ATOM     20  C   UNL     1      28.550   6.574  28.196  0.00  0.00    -0.047 A 
ATOM     21  C   UNL     1      27.445   6.951  28.964  0.00  0.00    -0.049 A 
ATOM     22 BR   UNL     1      30.212   4.724  26.801  0.00  0.00    -0.050 Br
ENDBRANCH  13  16
ENDBRANCH  11  12
ENDBRANCH   9  10
BRANCH   7  23
ATOM     23  C   UNL     1      21.138  12.472  33.598  0.00  0.00    +0.048 C 
BRANCH  23  24
ATOM     24  C   UNL     1      20.429  13.490  32.744  0.00  0.00    -0.025 A 
ATOM     25  C   UNL     1      21.151  14.383  31.947  0.00  0.00    -0.039 A 
ATOM     26  C   UNL     1      20.460  15.354  31.238  0.00  0.00    +0.028 A 
ATOM     27  N   UNL     1      19.118  15.479  31.250  0.00  0.00    -0.263 NA
ATOM     28  C   UNL     1      18.434  14.593  32.004  0.00  0.00    +0.028 A 
ATOM     29  C   UNL     1      19.034  13.593  32.753  0.00  0.00    -0.039 A 
ENDBRANCH  23  24
ENDBRANCH   7  23
TORSDOF 5
ENDMDL
