MODEL 1
REMARK VINA RESULT:    -9.292      0.000      0.000
REMARK INTER + INTRA:         -13.147
REMARK INTER:                 -12.008
REMARK INTRA:                  -1.139
REMARK UNBOUND:                -1.139
REMARK  Name = 9a.sdf
REMARK  5 active torsions:
REMARK  status: ('A' for Active; 'I' for Inactive)
REMARK    1  A    between atoms: N_7  and  C_11
REMARK    2  A    between atoms: C_9  and  C_10
REMARK    3  A    between atoms: C_11  and  C_12
REMARK    4  A    between atoms: C_19  and  C_20
REMARK    5  A    between atoms: C_20  and  C_21
REMARK                            x       y       z     vdW  Elec       q    Type
REMARK                         _______ _______ _______ _____ _____    ______ ____
ROOT
ATOM      1  C   UNL     1      19.419   8.911  33.440  0.00  0.00    -0.061 A 
ATOM      2  C   UNL     1      19.643   7.552  33.251  0.00  0.00    -0.060 A 
ATOM      3  C   UNL     1      20.600   7.100  32.337  0.00  0.00    -0.038 A 
ATOM      4  C   UNL     1      21.336   8.054  31.614  0.00  0.00    +0.050 A 
ATOM      5  C   UNL     1      21.156   9.427  31.818  0.00  0.00    +0.007 A 
ATOM      6  C   UNL     1      20.173   9.855  32.738  0.00  0.00    -0.052 A 
ATOM      7  N   UNL     1      22.298   7.915  30.628  0.00  0.00    -0.342 N 
ATOM      8  C   UNL     1      22.776   9.155  30.264  0.00  0.00    +0.013 A 
ATOM      9  C   UNL     1      22.089  10.112  30.982  0.00  0.00    +0.000 A 
ENDROOT
BRANCH   9  10
ATOM     10  C   UNL     1      22.285  11.529  30.915  0.00  0.00    -0.049 C 
ATOM     11  C   UNL     1      22.370  12.352  31.970  0.00  0.00    -0.014 C 
BRANCH  11  12
ATOM     12  C   UNL     1      22.500  13.823  31.782  0.00  0.00    +0.186 C 
ATOM     13  O   UNL     1      23.574  14.407  31.902  0.00  0.00    -0.287 OA
BRANCH  12  14
ATOM     14  C   UNL     1      21.249  14.564  31.483  0.00  0.00    +0.022 A 
ATOM     15  C   UNL     1      20.086  14.246  32.195  0.00  0.00    -0.051 A 
ATOM     16  C   UNL     1      18.886  14.898  31.900  0.00  0.00    -0.061 A 
ATOM     17  C   UNL     1      18.849  15.879  30.907  0.00  0.00    -0.062 A 
ATOM     18  C   UNL     1      20.009  16.223  30.223  0.00  0.00    -0.061 A 
ATOM     19  C   UNL     1      21.212  15.578  30.514  0.00  0.00    -0.051 A 
ENDBRANCH  12  14
ENDBRANCH  11  12
ENDBRANCH   9  10
BRANCH   7  20
ATOM     20  C   UNL     1      22.686   6.670  29.966  0.00  0.00    +0.048 C 
BRANCH  20  21
ATOM     21  C   UNL     1      23.898   6.047  30.611  0.00  0.00    -0.028 A 
ATOM     22  C   UNL     1      25.174   6.230  30.057  0.00  0.00    -0.056 A 
ATOM     23  C   UNL     1      26.280   5.557  30.579  0.00  0.00    -0.047 A 
ATOM     24  C   UNL     1      26.120   4.708  31.670  0.00  0.00    +0.018 A 
ATOM     25  C   UNL     1      24.873   4.561  32.273  0.00  0.00    -0.047 A 
ATOM     26  C   UNL     1      23.766   5.231  31.747  0.00  0.00    -0.056 A 
ATOM     27 BR   UNL     1      27.597   3.718  32.312  0.00  0.00    -0.050 Br
ENDBRANCH  20  21
ENDBRANCH   7  20
TORSDOF 5
ENDMDL
