REMARK  Name = 2a.sdf
REMARK  4 active torsions:
REMARK  status: ('A' for Active; 'I' for Inactive)
REMARK    1  A    between atoms: N_7  and  C_12
REMARK    2  A    between atoms: C_9  and  C_10
REMARK    3  A    between atoms: C_11  and  C_20
REMARK    4  A    between atoms: C_12  and  C_13
REMARK                            x       y       z     vdW  Elec       q    Type
REMARK                         _______ _______ _______ _____ _____    ______ ____
ROOT
ATOM      1  C   UNL     1      -2.172  -0.917  -0.017  0.00  0.00    -0.061 A 
ATOM      2  C   UNL     1      -2.236   0.453  -0.208  0.00  0.00    -0.060 A 
ATOM      3  C   UNL     1      -1.068   1.219  -0.330  0.00  0.00    -0.038 A 
ATOM      4  C   UNL     1       0.187   0.601  -0.160  0.00  0.00    +0.050 A 
ATOM      5  C   UNL     1       0.267  -0.796  -0.023  0.00  0.00    +0.007 A 
ATOM      6  C   UNL     1      -0.931  -1.553   0.033  0.00  0.00    -0.052 A 
ATOM      7  N   UNL     1       1.483   1.096  -0.091  0.00  0.00    -0.342 N 
ATOM      8  C   UNL     1       2.367   0.032  -0.019  0.00  0.00    +0.013 A 
ATOM      9  C   UNL     1       1.652  -1.142  -0.002  0.00  0.00    +0.000 A 
ENDROOT
BRANCH   9  10
ATOM     10  C   UNL     1       2.179  -2.476   0.023  0.00  0.00    -0.046 C 
ATOM     11  C   UNL     1       3.476  -2.814   0.024  0.00  0.00    +0.023 C 
BRANCH  11  12
ATOM     12  C   UNL     1       4.056  -4.175   0.051  0.00  0.00    +0.330 C 
ATOM     13  O   UNL     1       3.254  -5.172  -0.376  0.00  0.00    -0.478 OA
ATOM     14  O   UNL     1       5.198  -4.362   0.402  0.00  0.00    -0.246 OA
ENDBRANCH  11  12
ENDBRANCH   9  10
BRANCH   7  15
ATOM     15  C   UNL     1       1.942   2.491   0.062  0.00  0.00    +0.048 C 
BRANCH  15  16
ATOM     16  C   UNL     1       2.231   3.191  -1.246  0.00  0.00    -0.028 A 
ATOM     17  C   UNL     1       1.225   3.924  -1.894  0.00  0.00    -0.056 A 
ATOM     18  C   UNL     1       1.384   4.323  -3.224  0.00  0.00    -0.047 A 
ATOM     19  C   UNL     1       2.579   4.050  -3.886  0.00  0.00    +0.018 A 
ATOM     20  C   UNL     1       3.643   3.457  -3.210  0.00  0.00    -0.047 A 
ATOM     21  C   UNL     1       3.471   3.030  -1.890  0.00  0.00    -0.056 A 
ATOM     22 BR   UNL     1       2.719   4.378  -5.743  0.00  0.00    -0.050 Br
ENDBRANCH  15  16
ENDBRANCH   7  15
TORSDOF 4
