REMARK  Name = 9a.sdf
REMARK  5 active torsions:
REMARK  status: ('A' for Active; 'I' for Inactive)
REMARK    1  A    between atoms: N_7  and  C_11
REMARK    2  A    between atoms: C_9  and  C_10
REMARK    3  A    between atoms: C_11  and  C_12
REMARK    4  A    between atoms: C_19  and  C_20
REMARK    5  A    between atoms: C_20  and  C_21
REMARK                            x       y       z     vdW  Elec       q    Type
REMARK                         _______ _______ _______ _____ _____    ______ ____
ROOT
ATOM      1  C   UNL     1      -2.129  -0.877  -0.058  0.00  0.00    -0.061 A 
ATOM      2  C   UNL     1      -2.186   0.503  -0.211  0.00  0.00    -0.060 A 
ATOM      3  C   UNL     1      -1.019   1.274  -0.231  0.00  0.00    -0.038 A 
ATOM      4  C   UNL     1       0.217   0.619  -0.098  0.00  0.00    +0.050 A 
ATOM      5  C   UNL     1       0.300  -0.774   0.016  0.00  0.00    +0.007 A 
ATOM      6  C   UNL     1      -0.896  -1.526   0.047  0.00  0.00    -0.052 A 
ATOM      7  N   UNL     1       1.511   1.106  -0.036  0.00  0.00    -0.342 N 
ATOM      8  C   UNL     1       2.402   0.058   0.038  0.00  0.00    +0.013 A 
ATOM      9  C   UNL     1       1.684  -1.119   0.072  0.00  0.00    +0.000 A 
ENDROOT
BRANCH   9  10
ATOM     10  C   UNL     1       2.224  -2.444   0.136  0.00  0.00    -0.049 C 
ATOM     11  C   UNL     1       3.529  -2.751   0.169  0.00  0.00    -0.014 C 
BRANCH  11  12
ATOM     12  C   UNL     1       3.980  -4.169   0.160  0.00  0.00    +0.186 C 
ATOM     13  O   UNL     1       3.245  -5.093   0.497  0.00  0.00    -0.287 OA
BRANCH  12  14
ATOM     14  C   UNL     1       5.389  -4.412  -0.239  0.00  0.00    +0.022 A 
ATOM     15  C   UNL     1       6.072  -5.502   0.315  0.00  0.00    -0.051 A 
ATOM     16  C   UNL     1       7.412  -5.725  -0.010  0.00  0.00    -0.061 A 
ATOM     17  C   UNL     1       8.067  -4.872  -0.901  0.00  0.00    -0.062 A 
ATOM     18  C   UNL     1       7.382  -3.811  -1.481  0.00  0.00    -0.061 A 
ATOM     19  C   UNL     1       6.043  -3.583  -1.163  0.00  0.00    -0.051 A 
ENDBRANCH  12  14
ENDBRANCH  11  12
ENDBRANCH   9  10
BRANCH   7  20
ATOM     20  C   UNL     1       1.904   2.512   0.059  0.00  0.00    +0.048 C 
BRANCH  20  21
ATOM     21  C   UNL     1       2.176   3.111  -1.298  0.00  0.00    -0.028 A 
ATOM     22  C   UNL     1       1.174   3.820  -1.977  0.00  0.00    -0.056 A 
ATOM     23  C   UNL     1       1.381   4.271  -3.282  0.00  0.00    -0.047 A 
ATOM     24  C   UNL     1       2.599   4.029  -3.911  0.00  0.00    +0.018 A 
ATOM     25  C   UNL     1       3.628   3.382  -3.231  0.00  0.00    -0.047 A 
ATOM     26  C   UNL     1       3.418   2.927  -1.927  0.00  0.00    -0.056 A 
ATOM     27 BR   UNL     1       2.843   4.548  -5.712  0.00  0.00    -0.050 Br
ENDBRANCH  20  21
ENDBRANCH   7  20
TORSDOF 5
