REMARK  Name = 7c.sdf
REMARK  6 active torsions:
REMARK  status: ('A' for Active; 'I' for Inactive)
REMARK    1  A    between atoms: N_7  and  C_12
REMARK    2  A    between atoms: C_9  and  C_10
REMARK    3  A    between atoms: C_10  and  C_11
REMARK    4  A    between atoms: C_11  and  O_21
REMARK    5  A    between atoms: C_12  and  C_13
REMARK    6  A    between atoms: O_21  and  C_22
REMARK                            x       y       z     vdW  Elec       q    Type
REMARK                         _______ _______ _______ _____ _____    ______ ____
ROOT
ATOM      1  C   UNL     1      -2.111  -0.909  -0.068  0.00  0.00    -0.061 A 
ATOM      2  C   UNL     1      -2.198   0.473  -0.185  0.00  0.00    -0.060 A 
ATOM      3  C   UNL     1      -1.047   1.268  -0.200  0.00  0.00    -0.038 A 
ATOM      4  C   UNL     1       0.203   0.633  -0.103  0.00  0.00    +0.050 A 
ATOM      5  C   UNL     1       0.314  -0.760  -0.030  0.00  0.00    +0.004 A 
ATOM      6  C   UNL     1      -0.864  -1.536   0.002  0.00  0.00    -0.052 A 
ATOM      7  N   UNL     1       1.487   1.140  -0.044  0.00  0.00    -0.342 N 
ATOM      8  C   UNL     1       2.396   0.111  -0.017  0.00  0.00    +0.010 A 
ATOM      9  C   UNL     1       1.707  -1.086  -0.009  0.00  0.00    -0.012 A 
ENDROOT
BRANCH   9  10
ATOM     10  C   UNL     1       2.309  -2.454   0.010  0.00  0.00    +0.072 C 
BRANCH  10  11
ATOM     11  C   UNL     1       2.535  -2.989   1.408  0.00  0.00    +0.311 C 
ATOM     12  O   UNL     1       2.292  -2.418   2.461  0.00  0.00    -0.250 OA
BRANCH  11  13
ATOM     13  O   UNL     1       3.080  -4.243   1.320  0.00  0.00    -0.468 OA
ATOM     14  C   UNL     1       3.352  -4.842   2.587  0.00  0.00    +0.082 C 
ENDBRANCH  11  13
ENDBRANCH  10  11
ENDBRANCH   9  10
BRANCH   7  15
ATOM     15  C   UNL     1       1.858   2.549   0.060  0.00  0.00    +0.048 C 
BRANCH  15  16
ATOM     16  C   UNL     1       2.131   3.145  -1.299  0.00  0.00    -0.028 A 
ATOM     17  C   UNL     1       1.127   3.843  -1.984  0.00  0.00    -0.055 A 
ATOM     18  C   UNL     1       1.337   4.286  -3.291  0.00  0.00    -0.043 A 
ATOM     19  C   UNL     1       2.556   4.042  -3.917  0.00  0.00    +0.041 A 
ATOM     20  C   UNL     1       3.582   3.394  -3.234  0.00  0.00    -0.043 A 
ATOM     21  C   UNL     1       3.372   2.950  -1.927  0.00  0.00    -0.055 A 
ATOM     22 CL   UNL     1       2.789   4.523  -5.552  0.00  0.00    -0.084 Cl
ENDBRANCH  15  16
ENDBRANCH   7  15
TORSDOF 5
