MODEL 1
REMARK VINA RESULT:    -6.585      0.000      0.000
REMARK INTER + INTRA:          -7.476
REMARK INTER:                  -7.355
REMARK INTRA:                  -0.120
REMARK UNBOUND:                -0.120
REMARK  Name = 12.sdf
REMARK  2 active torsions:
REMARK  status: ('A' for Active; 'I' for Inactive)
REMARK    1  A    between atoms: C_9  and  C_10
REMARK    2  A    between atoms: C_10  and  C_11
REMARK                            x       y       z     vdW  Elec       q    Type
REMARK                         _______ _______ _______ _____ _____    ______ ____
ROOT
ATOM      1  C   UNL     1      22.652   4.190  16.415  0.00  0.00    -0.061 A 
ATOM      2  C   UNL     1      22.274   5.269  15.619  0.00  0.00    -0.060 A 
ATOM      3  C   UNL     1      20.947   5.427  15.211  0.00  0.00    -0.038 A 
ATOM      4  C   UNL     1      20.018   4.469  15.634  0.00  0.00    +0.047 A 
ATOM      5  C   UNL     1      20.359   3.386  16.448  0.00  0.00    +0.003 A 
ATOM      6  C   UNL     1      21.707   3.245  16.838  0.00  0.00    -0.052 A 
ATOM      7  N   UNL     1      18.669   4.385  15.387  0.00  0.00    -0.360 N 
ATOM      8  C   UNL     1      18.141   3.294  16.020  0.00  0.00    +0.006 A 
ATOM      9  C   UNL     1      19.153   2.654  16.711  0.00  0.00    -0.012 A 
ATOM     10  H   UNL     1      18.157   5.018  14.833  0.00  0.00    +0.000 HD
ENDROOT
BRANCH   9  11
ATOM     11  C   UNL     1      18.984   1.461  17.604  0.00  0.00    +0.072 C 
BRANCH  11  12
ATOM     12  C   UNL     1      17.557   1.057  17.900  0.00  0.00    +0.309 C 
ATOM     13  O   UNL     1      16.913   0.316  17.165  0.00  0.00    -0.251 OA
ATOM     14  O   UNL     1      17.056   1.482  19.082  0.00  0.00    -0.480 OA
ENDBRANCH  11  12
ENDBRANCH   9  11
TORSDOF 2
ENDMDL
