MODEL 1
REMARK VINA RESULT:    -9.006      0.000      0.000
REMARK INTER + INTRA:         -13.360
REMARK INTER:                 -12.166
REMARK INTRA:                  -1.195
REMARK UNBOUND:                -1.195
REMARK  Name = 16c.sdf
REMARK  6 active torsions:
REMARK  status: ('A' for Active; 'I' for Inactive)
REMARK    1  A    between atoms: N_7  and  C_11
REMARK    2  A    between atoms: C_9  and  C_10
REMARK    3  A    between atoms: C_10  and  O_19
REMARK    4  A    between atoms: C_11  and  C_12
REMARK    5  A    between atoms: O_19  and  C_20
REMARK    6  A    between atoms: C_20  and  C_21
REMARK                            x       y       z     vdW  Elec       q    Type
REMARK                         _______ _______ _______ _____ _____    ______ ____
ROOT
ATOM      1  C   UNL     1      21.250   9.223  11.605  0.00  0.00    -0.061 A 
ATOM      2  C   UNL     1      20.369   8.889  10.578  0.00  0.00    -0.060 A 
ATOM      3  C   UNL     1      19.775   7.623  10.519  0.00  0.00    -0.038 A 
ATOM      4  C   UNL     1      20.083   6.694  11.528  0.00  0.00    +0.050 A 
ATOM      5  C   UNL     1      20.932   7.023  12.588  0.00  0.00    +0.005 A 
ATOM      6  C   UNL     1      21.525   8.302  12.619  0.00  0.00    -0.052 A 
ATOM      7  N   UNL     1      19.690   5.383  11.724  0.00  0.00    -0.342 N 
ATOM      8  C   UNL     1      20.205   4.913  12.908  0.00  0.00    +0.011 A 
ATOM      9  C   UNL     1      20.968   5.911  13.481  0.00  0.00    +0.003 A 
ENDROOT
BRANCH   9  10
ATOM     10  C   UNL     1      21.649   5.869  14.810  0.00  0.00    +0.075 C 
BRANCH  10  11
ATOM     11  O   UNL     1      20.794   5.405  15.861  0.00  0.00    -0.371 OA
BRANCH  11  12
ATOM     12  C   UNL     1      21.303   4.241  16.505  0.00  0.00    +0.073 C 
BRANCH  12  13
ATOM     13  C   UNL     1      20.149   3.317  16.795  0.00  0.00    -0.022 A 
ATOM     14  C   UNL     1      19.020   3.310  15.963  0.00  0.00    -0.055 A 
ATOM     15  C   UNL     1      17.948   2.459  16.233  0.00  0.00    -0.043 A 
ATOM     16  C   UNL     1      17.996   1.621  17.345  0.00  0.00    +0.041 A 
ATOM     17  C   UNL     1      19.108   1.627  18.188  0.00  0.00    -0.043 A 
ATOM     18  C   UNL     1      20.175   2.480  17.918  0.00  0.00    -0.055 A 
ATOM     19 CL   UNL     1      16.674   0.571  17.681  0.00  0.00    -0.084 Cl
ENDBRANCH  12  13
ENDBRANCH  11  12
ENDBRANCH  10  11
ENDBRANCH   9  10
BRANCH   7  20
ATOM     20  C   UNL     1      18.913   4.563  10.796  0.00  0.00    +0.048 C 
BRANCH  20  21
ATOM     21  C   UNL     1      17.578   4.170  11.379  0.00  0.00    -0.028 A 
ATOM     22  C   UNL     1      16.397   4.773  10.919  0.00  0.00    -0.055 A 
ATOM     23  C   UNL     1      15.170   4.482  11.519  0.00  0.00    -0.043 A 
ATOM     24  C   UNL     1      15.113   3.577  12.575  0.00  0.00    +0.041 A 
ATOM     25  C   UNL     1      16.268   2.936  13.016  0.00  0.00    -0.043 A 
ATOM     26  C   UNL     1      17.496   3.228  12.418  0.00  0.00    -0.055 A 
ATOM     27 CL   UNL     1      13.610   3.266  13.354  0.00  0.00    -0.084 Cl
ENDBRANCH  20  21
ENDBRANCH   7  20
TORSDOF 6
ENDMDL
