MODEL 1
REMARK VINA RESULT:    -6.666      0.000      0.000
REMARK INTER + INTRA:          -8.570
REMARK INTER:                  -8.225
REMARK INTRA:                  -0.345
REMARK UNBOUND:                -0.345
REMARK  Name = 19.sdf
REMARK  5 active torsions:
REMARK  status: ('A' for Active; 'I' for Inactive)
REMARK    1  A    between atoms: C_9  and  C_10
REMARK    2  A    between atoms: C_10  and  C_11
REMARK    3  A    between atoms: C_11  and  O_13
REMARK    4  A    between atoms: O_13  and  C_14
REMARK    5  A    between atoms: C_14  and  C_15
REMARK                            x       y       z     vdW  Elec       q    Type
REMARK                         _______ _______ _______ _____ _____    ______ ____
ROOT
ATOM      1  C   UNL     1      22.863   4.207  16.411  0.00  0.00    -0.061 A 
ATOM      2  C   UNL     1      22.602   5.334  15.639  0.00  0.00    -0.060 A 
ATOM      3  C   UNL     1      21.307   5.621  15.198  0.00  0.00    -0.038 A 
ATOM      4  C   UNL     1      20.288   4.740  15.574  0.00  0.00    +0.047 A 
ATOM      5  C   UNL     1      20.509   3.610  16.363  0.00  0.00    +0.003 A 
ATOM      6  C   UNL     1      21.830   3.339  16.782  0.00  0.00    -0.052 A 
ATOM      7  N   UNL     1      18.944   4.774  15.286  0.00  0.00    -0.360 N 
ATOM      8  C   UNL     1      18.303   3.728  15.894  0.00  0.00    +0.006 A 
ATOM      9  C   UNL     1      19.242   2.974  16.577  0.00  0.00    -0.012 A 
ATOM     10  H   UNL     1      18.506   5.453  14.724  0.00  0.00    +0.000 HD
ENDROOT
BRANCH   9  11
ATOM     11  C   UNL     1      18.965   1.765  17.415  0.00  0.00    +0.072 C 
BRANCH  11  12
ATOM     12  C   UNL     1      17.513   1.327  17.418  0.00  0.00    +0.312 C 
ATOM     13  O   UNL     1      16.679   1.563  18.280  0.00  0.00    -0.250 OA
BRANCH  12  14
ATOM     14  O   UNL     1      17.283   0.559  16.305  0.00  0.00    -0.465 OA
BRANCH  14  15
ATOM     15  C   UNL     1      15.915   0.435  15.888  0.00  0.00    +0.090 C 
ATOM     16  C   UNL     1      15.537   1.524  14.905  0.00  0.00    -0.031 C 
ENDBRANCH  14  15
ENDBRANCH  12  14
ENDBRANCH  11  12
ENDBRANCH   9  11
TORSDOF 4
ENDMDL
