MODEL 1
REMARK VINA RESULT:    -8.116      0.000      0.000
REMARK INTER + INTRA:         -11.956
REMARK INTER:                 -10.963
REMARK INTRA:                  -0.992
REMARK UNBOUND:                -0.992
REMARK  Name = 22a.sdf
REMARK  7 active torsions:
REMARK  status: ('A' for Active; 'I' for Inactive)
REMARK    1  A    between atoms: N_7  and  C_12
REMARK    2  A    between atoms: C_9  and  C_10
REMARK    3  A    between atoms: N_11  and  N_19
REMARK    4  A    between atoms: C_12  and  C_13
REMARK    5  A    between atoms: C_20  and  C_22
REMARK    6  A    between atoms: C_25  and  O_29
REMARK    7  A    between atoms: O_29  and  C_30
REMARK                            x       y       z     vdW  Elec       q    Type
REMARK                         _______ _______ _______ _____ _____    ______ ____
ROOT
ATOM      1  C   UNL     1      17.406   6.878   7.128  0.00  0.00    -0.061 A 
ATOM      2  C   UNL     1      17.709   7.984   6.343  0.00  0.00    -0.060 A 
ATOM      3  C   UNL     1      18.370   9.090   6.885  0.00  0.00    -0.038 A 
ATOM      4  C   UNL     1      18.731   9.056   8.243  0.00  0.00    +0.050 A 
ATOM      5  C   UNL     1      18.477   7.932   9.042  0.00  0.00    +0.009 A 
ATOM      6  C   UNL     1      17.790   6.837   8.472  0.00  0.00    -0.052 A 
ATOM      7  N   UNL     1      19.336   9.997   9.055  0.00  0.00    -0.342 N 
ATOM      8  C   UNL     1      19.538   9.469  10.306  0.00  0.00    +0.015 A 
ATOM      9  C   UNL     1      19.027   8.186  10.338  0.00  0.00    +0.020 A 
ENDROOT
BRANCH   9  10
ATOM     10  C   UNL     1      19.055   7.287  11.470  0.00  0.00    +0.055 C 
ATOM     11  N   UNL     1      19.994   6.399  11.565  0.00  0.00    -0.187 NA
BRANCH  11  12
ATOM     12  N   UNL     1      19.943   5.581  12.662  0.00  0.00    -0.203 N 
ATOM     13  C   UNL     1      20.767   5.848  13.746  0.00  0.00    +0.263 C 
ATOM     14  O   UNL     1      21.553   6.786  13.824  0.00  0.00    -0.268 OA
ATOM     15  H   UNL     1      19.328   4.813  12.683  0.00  0.00    +0.000 HD
BRANCH  13  16
ATOM     16  C   UNL     1      20.630   4.925  14.912  0.00  0.00    +0.039 A 
ATOM     17  C   UNL     1      19.411   4.349  15.280  0.00  0.00    -0.046 A 
ATOM     18  C   UNL     1      19.349   3.504  16.393  0.00  0.00    -0.019 A 
ATOM     19  C   UNL     1      20.497   3.203  17.132  0.00  0.00    +0.120 A 
ATOM     20  C   UNL     1      21.718   3.760  16.754  0.00  0.00    -0.019 A 
ATOM     21  C   UNL     1      21.784   4.615  15.646  0.00  0.00    -0.046 A 
BRANCH  19  22
ATOM     22  O   UNL     1      20.293   2.403  18.222  0.00  0.00    -0.495 OA
ATOM     23  C   UNL     1      19.102   1.626  18.222  0.00  0.00    +0.079 C 
ENDBRANCH  19  22
ENDBRANCH  13  16
ENDBRANCH  11  12
ENDBRANCH   9  10
BRANCH   7  24
ATOM     24  C   UNL     1      19.633  11.385   8.699  0.00  0.00    +0.048 C 
BRANCH  24  25
ATOM     25  C   UNL     1      21.007  11.525   8.095  0.00  0.00    -0.028 A 
ATOM     26  C   UNL     1      22.116  11.815   8.903  0.00  0.00    -0.056 A 
ATOM     27  C   UNL     1      23.366  12.064   8.333  0.00  0.00    -0.047 A 
ATOM     28  C   UNL     1      23.516  12.010   6.950  0.00  0.00    +0.018 A 
ATOM     29  C   UNL     1      22.440  11.666   6.135  0.00  0.00    -0.047 A 
ATOM     30  C   UNL     1      21.189  11.423   6.706  0.00  0.00    -0.056 A 
ATOM     31 BR   UNL     1      25.183  12.442   6.171  0.00  0.00    -0.050 Br
ENDBRANCH  24  25
ENDBRANCH   7  24
TORSDOF 6
ENDMDL
