MODEL 1
REMARK VINA RESULT:    -8.347      0.000      0.000
REMARK INTER + INTRA:         -12.477
REMARK INTER:                 -11.763
REMARK INTRA:                  -0.713
REMARK UNBOUND:                -0.713
REMARK  Name = 23a.sdf
REMARK  9 active torsions:
REMARK  status: ('A' for Active; 'I' for Inactive)
REMARK    1  A    between atoms: N_7  and  C_12
REMARK    2  A    between atoms: C_9  and  C_10
REMARK    3  A    between atoms: N_11  and  N_19
REMARK    4  A    between atoms: C_12  and  C_13
REMARK    5  A    between atoms: C_20  and  C_22
REMARK    6  A    between atoms: C_24  and  O_30
REMARK    7  A    between atoms: C_25  and  O_29
REMARK    8  A    between atoms: O_29  and  C_32
REMARK    9  A    between atoms: O_30  and  C_31
REMARK                            x       y       z     vdW  Elec       q    Type
REMARK                         _______ _______ _______ _____ _____    ______ ____
ROOT
ATOM      1  C   UNL     1      22.277  10.259  11.434  0.00  0.00    -0.061 A 
ATOM      2  C   UNL     1      22.053  11.008  10.291  0.00  0.00    -0.060 A 
ATOM      3  C   UNL     1      21.051  10.642   9.384  0.00  0.00    -0.038 A 
ATOM      4  C   UNL     1      20.348   9.435   9.571  0.00  0.00    +0.050 A 
ATOM      5  C   UNL     1      20.533   8.686  10.747  0.00  0.00    +0.009 A 
ATOM      6  C   UNL     1      21.495   9.128  11.693  0.00  0.00    -0.052 A 
ATOM      7  N   UNL     1      19.420   8.757   8.788  0.00  0.00    -0.342 N 
ATOM      8  C   UNL     1      18.971   7.657   9.490  0.00  0.00    +0.015 A 
ATOM      9  C   UNL     1      19.607   7.593  10.717  0.00  0.00    +0.020 A 
ENDROOT
BRANCH   9  10
ATOM     10  C   UNL     1      19.373   6.616  11.767  0.00  0.00    +0.055 C 
ATOM     11  N   UNL     1      20.336   5.832  12.159  0.00  0.00    -0.187 NA
BRANCH  11  12
ATOM     12  N   UNL     1      20.039   4.922  13.140  0.00  0.00    -0.203 N 
ATOM     13  C   UNL     1      20.427   5.174  14.446  0.00  0.00    +0.263 C 
ATOM     14  O   UNL     1      21.040   6.187  14.818  0.00  0.00    -0.268 OA
ATOM     15  H   UNL     1      19.554   4.095  12.917  0.00  0.00    +0.000 HD
BRANCH  13  16
ATOM     16  C   UNL     1      20.035   4.171  15.473  0.00  0.00    +0.042 A 
ATOM     17  C   UNL     1      18.744   3.636  15.529  0.00  0.00    -0.004 A 
ATOM     18  C   UNL     1      18.385   2.757  16.562  0.00  0.00    +0.162 A 
ATOM     19  C   UNL     1      19.348   2.362  17.518  0.00  0.00    +0.162 A 
ATOM     20  C   UNL     1      20.659   2.831  17.403  0.00  0.00    -0.016 A 
ATOM     21  C   UNL     1      20.996   3.740  16.397  0.00  0.00    -0.046 A 
BRANCH  19  22
ATOM     22  O   UNL     1      18.912   1.524  18.516  0.00  0.00    -0.491 OA
ATOM     23  C   UNL     1      19.869   1.084  19.474  0.00  0.00    +0.079 C 
ENDBRANCH  19  22
BRANCH  18  24
ATOM     24  O   UNL     1      17.123   2.237  16.719  0.00  0.00    -0.491 OA
ATOM     25  C   UNL     1      16.476   1.724  15.562  0.00  0.00    +0.079 C 
ENDBRANCH  18  24
ENDBRANCH  13  16
ENDBRANCH  11  12
ENDBRANCH   9  10
BRANCH   7  26
ATOM     26  C   UNL     1      19.042   8.999   7.380  0.00  0.00    +0.048 C 
BRANCH  26  27
ATOM     27  C   UNL     1      17.897   8.137   6.891  0.00  0.00    -0.028 A 
ATOM     28  C   UNL     1      16.568   8.485   7.187  0.00  0.00    -0.056 A 
ATOM     29  C   UNL     1      15.541   7.550   7.028  0.00  0.00    -0.047 A 
ATOM     30  C   UNL     1      15.822   6.298   6.486  0.00  0.00    +0.018 A 
ATOM     31  C   UNL     1      17.104   5.999   6.031  0.00  0.00    -0.047 A 
ATOM     32  C   UNL     1      18.141   6.914   6.237  0.00  0.00    -0.056 A 
ATOM     33 BR   UNL     1      14.491   4.954   6.484  0.00  0.00    -0.050 Br
ENDBRANCH  26  27
ENDBRANCH   7  26
TORSDOF 7
ENDMDL
