MODEL 1
REMARK VINA RESULT:    -8.332      0.000      0.000
REMARK INTER + INTRA:         -12.437
REMARK INTER:                 -11.254
REMARK INTRA:                  -1.183
REMARK UNBOUND:                -1.183
REMARK  Name = 26a.sdf
REMARK  7 active torsions:
REMARK  status: ('A' for Active; 'I' for Inactive)
REMARK    1  A    between atoms: N_7  and  C_10
REMARK    2  A    between atoms: C_9  and  C_18
REMARK    3  A    between atoms: C_10  and  C_11
REMARK    4  A    between atoms: N_19  and  N_20
REMARK    5  A    between atoms: C_21  and  C_23
REMARK    6  A    between atoms: C_26  and  O_29
REMARK    7  A    between atoms: C_28  and  O_30
REMARK                            x       y       z     vdW  Elec       q    Type
REMARK                         _______ _______ _______ _____ _____    ______ ____
ROOT
ATOM      1  C   UNL     1      16.907   7.557   7.395  0.00  0.00    -0.061 A 
ATOM      2  C   UNL     1      17.195   8.643   6.577  0.00  0.00    -0.060 A 
ATOM      3  C   UNL     1      18.017   9.682   7.023  0.00  0.00    -0.038 A 
ATOM      4  C   UNL     1      18.555   9.600   8.319  0.00  0.00    +0.050 A 
ATOM      5  C   UNL     1      18.317   8.492   9.143  0.00  0.00    +0.009 A 
ATOM      6  C   UNL     1      17.468   7.466   8.673  0.00  0.00    -0.052 A 
ATOM      7  N   UNL     1      19.341  10.478   9.041  0.00  0.00    -0.342 N 
ATOM      8  C   UNL     1      19.670   9.918  10.249  0.00  0.00    +0.015 A 
ATOM      9  C   UNL     1      19.057   8.687  10.351  0.00  0.00    +0.020 A 
ENDROOT
BRANCH   9  10
ATOM     10  C   UNL     1      19.161   7.785  11.479  0.00  0.00    +0.055 C 
ATOM     11  N   UNL     1      20.128   6.928  11.527  0.00  0.00    -0.187 NA
BRANCH  11  12
ATOM     12  N   UNL     1      20.128   6.120  12.623  0.00  0.00    -0.203 N 
ATOM     13  C   UNL     1      21.014   6.329  13.662  0.00  0.00    +0.267 C 
ATOM     14  O   UNL     1      21.848   7.235  13.708  0.00  0.00    -0.268 OA
ATOM     15  H   UNL     1      19.487   5.375  12.675  0.00  0.00    +0.000 HD
BRANCH  13  16
ATOM     16  C   UNL     1      20.929   5.353  14.801  0.00  0.00    +0.080 A 
ATOM     17  C   UNL     1      19.717   4.663  14.973  0.00  0.00    -0.043 A 
ATOM     18  C   UNL     1      19.546   3.750  16.015  0.00  0.00    -0.019 A 
ATOM     19  C   UNL     1      20.599   3.520  16.894  0.00  0.00    +0.120 A 
ATOM     20  C   UNL     1      21.812   4.180  16.744  0.00  0.00    +0.022 A 
ATOM     21  C   UNL     1      21.978   5.097  15.701  0.00  0.00    +0.132 A 
BRANCH  19  22
ATOM     22  O   UNL     1      20.480   2.648  17.934  0.00  0.00    -0.507 OA
ATOM     23  H   UNL     1      20.714   1.747  17.821  0.00  0.00    +0.000 HD
ENDBRANCH  19  22
BRANCH  21  24
ATOM     24  O   UNL     1      23.186   5.739  15.584  0.00  0.00    -0.506 OA
ATOM     25  H   UNL     1      23.934   5.274  15.263  0.00  0.00    +0.000 HD
ENDBRANCH  21  24
ENDBRANCH  13  16
ENDBRANCH  11  12
ENDBRANCH   9  10
BRANCH   7  26
ATOM     26  C   UNL     1      19.690  11.846   8.664  0.00  0.00    +0.048 C 
BRANCH  26  27
ATOM     27  C   UNL     1      21.020  11.908   7.958  0.00  0.00    -0.028 A 
ATOM     28  C   UNL     1      21.105  11.680   6.577  0.00  0.00    -0.056 A 
ATOM     29  C   UNL     1      22.345  11.622   5.940  0.00  0.00    -0.047 A 
ATOM     30  C   UNL     1      23.510  11.806   6.681  0.00  0.00    +0.018 A 
ATOM     31  C   UNL     1      23.444  12.089   8.043  0.00  0.00    -0.047 A 
ATOM     32  C   UNL     1      22.201  12.141   8.679  0.00  0.00    -0.056 A 
ATOM     33 BR   UNL     1      25.192  11.634   5.837  0.00  0.00    -0.050 Br
ENDBRANCH  26  27
ENDBRANCH   7  26
TORSDOF 7
ENDMDL
