MODEL 1
REMARK VINA RESULT:    -8.417      0.000      0.000
REMARK INTER + INTRA:         -11.829
REMARK INTER:                 -11.123
REMARK INTRA:                  -0.706
REMARK UNBOUND:                -0.706
REMARK  Name = 27a.sdf
REMARK  6 active torsions:
REMARK  status: ('A' for Active; 'I' for Inactive)
REMARK    1  A    between atoms: N_7  and  C_10
REMARK    2  A    between atoms: C_9  and  C_18
REMARK    3  A    between atoms: C_10  and  C_11
REMARK    4  A    between atoms: N_19  and  N_20
REMARK    5  A    between atoms: C_21  and  C_23
REMARK    6  A    between atoms: C_26  and  N_29
REMARK                            x       y       z     vdW  Elec       q    Type
REMARK                         _______ _______ _______ _____ _____    ______ ____
ROOT
ATOM      1  C   UNL     1      22.180  10.242  11.331  0.00  0.00    -0.061 A 
ATOM      2  C   UNL     1      21.665  10.651  10.108  0.00  0.00    -0.060 A 
ATOM      3  C   UNL     1      20.706   9.883   9.438  0.00  0.00    -0.038 A 
ATOM      4  C   UNL     1      20.267   8.690  10.035  0.00  0.00    +0.050 A 
ATOM      5  C   UNL     1      20.738   8.282  11.291  0.00  0.00    +0.009 A 
ATOM      6  C   UNL     1      21.719   9.068  11.935  0.00  0.00    -0.052 A 
ATOM      7  N   UNL     1      19.382   7.720   9.603  0.00  0.00    -0.342 N 
ATOM      8  C   UNL     1      19.231   6.765  10.577  0.00  0.00    +0.015 A 
ATOM      9  C   UNL     1      20.046   7.081  11.644  0.00  0.00    +0.020 A 
ENDROOT
BRANCH   9  10
ATOM     10  C   UNL     1      20.168   6.332  12.879  0.00  0.00    +0.055 C 
ATOM     11  N   UNL     1      19.626   5.162  12.980  0.00  0.00    -0.187 NA
BRANCH  11  12
ATOM     12  N   UNL     1      19.780   4.533  14.184  0.00  0.00    -0.203 N 
ATOM     13  C   UNL     1      18.789   3.667  14.631  0.00  0.00    +0.263 C 
ATOM     14  O   UNL     1      17.756   3.393  14.024  0.00  0.00    -0.268 OA
ATOM     15  H   UNL     1      20.585   4.691  14.728  0.00  0.00    +0.000 HD
BRANCH  13  16
ATOM     16  C   UNL     1      19.053   3.010  15.945  0.00  0.00    +0.038 A 
ATOM     17  C   UNL     1      20.195   3.277  16.711  0.00  0.00    -0.048 A 
ATOM     18  C   UNL     1      20.385   2.626  17.938  0.00  0.00    -0.040 A 
ATOM     19  C   UNL     1      19.464   1.682  18.401  0.00  0.00    +0.025 A 
ATOM     20  C   UNL     1      18.287   1.486  17.676  0.00  0.00    -0.040 A 
ATOM     21  C   UNL     1      18.088   2.129  16.449  0.00  0.00    -0.048 A 
BRANCH  19  22
ATOM     22  N   UNL     1      19.602   1.130  19.679  0.00  0.00    -0.358 N 
ATOM     23  H   UNL     1      18.831   1.101  20.289  0.00  0.00    +0.000 HD
ATOM     24  H   UNL     1      20.472   0.768  19.967  0.00  0.00    +0.000 HD
ENDBRANCH  19  22
ENDBRANCH  13  16
ENDBRANCH  11  12
ENDBRANCH   9  10
BRANCH   7  25
ATOM     25  C   UNL     1      18.778   7.629   8.274  0.00  0.00    +0.048 C 
BRANCH  25  26
ATOM     26  C   UNL     1      17.458   6.900   8.308  0.00  0.00    -0.028 A 
ATOM     27  C   UNL     1      16.337   7.481   8.920  0.00  0.00    -0.056 A 
ATOM     28  C   UNL     1      15.149   6.760   9.056  0.00  0.00    -0.047 A 
ATOM     29  C   UNL     1      15.071   5.459   8.566  0.00  0.00    +0.018 A 
ATOM     30  C   UNL     1      16.154   4.887   7.903  0.00  0.00    -0.047 A 
ATOM     31  C   UNL     1      17.344   5.607   7.774  0.00  0.00    -0.056 A 
ATOM     32 BR   UNL     1      13.495   4.450   8.837  0.00  0.00    -0.050 Br
ENDBRANCH  25  26
ENDBRANCH   7  25
TORSDOF 6
ENDMDL
