MODEL 1
REMARK VINA RESULT:    -7.115      0.000      0.000
REMARK INTER + INTRA:          -8.097
REMARK INTER:                  -7.947
REMARK INTRA:                  -0.150
REMARK UNBOUND:                -0.150
REMARK  Name = 2.sdf
REMARK  2 active torsions:
REMARK  status: ('A' for Active; 'I' for Inactive)
REMARK    1  A    between atoms: C_9  and  C_10
REMARK    2  A    between atoms: C_11  and  C_12
REMARK                            x       y       z     vdW  Elec       q    Type
REMARK                         _______ _______ _______ _____ _____    ______ ____
ROOT
ATOM      1  C   UNL     1      18.465   2.811  16.385  0.00  0.00    -0.061 A 
ATOM      2  C   UNL     1      19.308   2.325  17.379  0.00  0.00    -0.060 A 
ATOM      3  C   UNL     1      20.607   2.817  17.520  0.00  0.00    -0.038 A 
ATOM      4  C   UNL     1      21.029   3.811  16.627  0.00  0.00    +0.047 A 
ATOM      5  C   UNL     1      20.211   4.328  15.618  0.00  0.00    +0.007 A 
ATOM      6  C   UNL     1      18.903   3.804  15.500  0.00  0.00    -0.052 A 
ATOM      7  N   UNL     1      22.244   4.449  16.536  0.00  0.00    -0.360 N 
ATOM      8  C   UNL     1      22.237   5.339  15.496  0.00  0.00    +0.010 A 
ATOM      9  C   UNL     1      20.987   5.305  14.914  0.00  0.00    +0.000 A 
ATOM     10  H   UNL     1      23.011   4.288  17.134  0.00  0.00    +0.000 HD
ENDROOT
BRANCH   9  11
ATOM     11  C   UNL     1      20.650   6.126  13.788  0.00  0.00    -0.046 C 
ATOM     12  C   UNL     1      21.363   7.178  13.357  0.00  0.00    +0.023 C 
BRANCH  12  13
ATOM     13  C   UNL     1      21.094   8.072  12.215  0.00  0.00    +0.330 C 
ATOM     14  O   UNL     1      20.004   7.804  11.477  0.00  0.00    -0.478 OA
ATOM     15  O   UNL     1      21.836   9.010  11.965  0.00  0.00    -0.246 OA
ENDBRANCH  12  13
ENDBRANCH   9  11
TORSDOF 2
ENDMDL
