MODEL 1
REMARK VINA RESULT:    -8.412      0.000      0.000
REMARK INTER + INTRA:         -11.240
REMARK INTER:                 -11.117
REMARK INTRA:                  -0.122
REMARK UNBOUND:                -0.122
REMARK  Name = 3a.sdf
REMARK  6 active torsions:
REMARK  status: ('A' for Active; 'I' for Inactive)
REMARK    1  A    between atoms: N_7  and  C_12
REMARK    2  A    between atoms: C_9  and  C_10
REMARK    3  A    between atoms: C_10  and  CA_11
REMARK    4  A    between atoms: CA_11  and  C_20
REMARK    5  A    between atoms: CA_11  and  N_23
REMARK    6  A    between atoms: C_12  and  C_13
REMARK                            x       y       z     vdW  Elec       q    Type
REMARK                         _______ _______ _______ _____ _____    ______ ____
ROOT
ATOM      1  C   UNL     1      20.654   8.725  10.446  0.00  0.00    -0.061 A 
ATOM      2  C   UNL     1      21.385   9.047  11.584  0.00  0.00    -0.060 A 
ATOM      3  C   UNL     1      21.457   8.163  12.665  0.00  0.00    -0.038 A 
ATOM      4  C   UNL     1      20.788   6.932  12.568  0.00  0.00    +0.050 A 
ATOM      5  C   UNL     1      20.076   6.571  11.418  0.00  0.00    +0.003 A 
ATOM      6  C   UNL     1      19.999   7.493  10.352  0.00  0.00    -0.052 A 
ATOM      7  N   UNL     1      20.630   5.899  13.470  0.00  0.00    -0.342 N 
ATOM      8  C   UNL     1      19.999   4.842  12.861  0.00  0.00    +0.009 A 
ATOM      9  C   UNL     1      19.544   5.257  11.627  0.00  0.00    -0.020 A 
ENDROOT
BRANCH   9  10
ATOM     10  C   UNL     1      18.662   4.500  10.680  0.00  0.00    -0.000 C 
BRANCH  10  11
ATOM     11  CA  UNL     1      17.202   4.984  10.592  0.00  0.00    +0.107 C 
BRANCH  11  12
ATOM     12  N   UNL     1      16.345   4.098  11.426  0.00  0.00    -0.318 N 
ATOM     13  H1  UNL     1      16.735   3.155  11.431  0.00  0.00    +0.000 HD
ATOM     14  H2  UNL     1      15.403   4.075  11.038  0.00  0.00    +0.000 HD
ATOM     15  H3  UNL     1      16.313   4.457  12.381  0.00  0.00    +0.000 HD
ENDBRANCH  11  12
BRANCH  11  16
ATOM     16  C   UNL     1      16.695   5.060   9.131  0.00  0.00    +0.322 C 
ATOM     17  O   UNL     1      15.367   4.817   9.006  0.00  0.00    -0.480 OA
ATOM     18  OXT UNL     1      17.376   5.351   8.155  0.00  0.00    -0.249 OA
ENDBRANCH  11  16
ENDBRANCH  10  11
ENDBRANCH   9  10
BRANCH   7  19
ATOM     19  C   UNL     1      20.913   5.943  14.903  0.00  0.00    +0.048 C 
BRANCH  19  20
ATOM     20  C   UNL     1      20.397   4.717  15.611  0.00  0.00    -0.028 A 
ATOM     21  C   UNL     1      19.040   4.373  15.529  0.00  0.00    -0.056 A 
ATOM     22  C   UNL     1      18.530   3.317  16.283  0.00  0.00    -0.047 A 
ATOM     23  C   UNL     1      19.379   2.586  17.110  0.00  0.00    +0.018 A 
ATOM     24  C   UNL     1      20.741   2.873  17.156  0.00  0.00    -0.047 A 
ATOM     25  C   UNL     1      21.250   3.936  16.406  0.00  0.00    -0.056 A 
ATOM     26 BR   UNL     1      18.671   1.217  18.201  0.00  0.00    -0.050 Br
ENDBRANCH  19  20
ENDBRANCH   7  19
TORSDOF 6
ENDMDL
