MODEL 1
REMARK VINA RESULT:    -8.135      0.000      0.000
REMARK INTER + INTRA:          -9.397
REMARK INTER:                  -9.800
REMARK INTRA:                   0.403
REMARK UNBOUND:                 0.403
REMARK  Name = 4a.pdb
REMARK  4 active torsions:
REMARK  status: ('A' for Active; 'I' for Inactive)
REMARK    1  A    between atoms: N_7  and  C_11
REMARK    2  A    between atoms: C_9  and  C_10
REMARK    3  A    between atoms: C_10  and  O_18
REMARK    4  A    between atoms: C_11  and  C_12
REMARK                            x       y       z     vdW  Elec       q    Type
REMARK                         _______ _______ _______ _____ _____    ______ ____
ROOT
ATOM      1  C   UNL     1      20.656   8.779  10.480  0.00  0.00    -0.061 A 
ATOM      2  C   UNL     1      21.432   9.072  11.594  0.00  0.00    -0.060 A 
ATOM      3  C   UNL     1      21.531   8.172  12.656  0.00  0.00    -0.038 A 
ATOM      4  C   UNL     1      20.816   6.964  12.578  0.00  0.00    +0.050 A 
ATOM      5  C   UNL     1      20.033   6.644  11.465  0.00  0.00    +0.005 A 
ATOM      6  C   UNL     1      19.957   7.570  10.402  0.00  0.00    -0.052 A 
ATOM      7  N   UNL     1      20.703   5.913  13.468  0.00  0.00    -0.342 N 
ATOM      8  C   UNL     1      19.898   4.937  12.935  0.00  0.00    +0.011 A 
ATOM      9  C   UNL     1      19.457   5.353  11.692  0.00  0.00    +0.003 A 
ENDROOT
BRANCH   9  10
ATOM     10  C   UNL     1      18.564   4.592  10.774  0.00  0.00    +0.071 C 
BRANCH  10  11
ATOM     11  O   UNL     1      17.396   4.133  11.448  0.00  0.00    -0.390 OA
ATOM     12  H   UNL     1      16.646   4.706  11.223  0.00  0.00    +0.000 HD
ENDBRANCH  10  11
ENDBRANCH   9  10
BRANCH   7  13
ATOM     13  C   UNL     1      21.355   5.814  14.771  0.00  0.00    +0.048 C 
BRANCH  13  14
ATOM     14  C   UNL     1      20.784   4.674  15.580  0.00  0.00    -0.028 A 
ATOM     15  C   UNL     1      21.075   2.904  17.225  0.00  0.00    -0.047 A 
ATOM     16  C   UNL     1      19.698   2.691  17.236  0.00  0.00    +0.018 A 
ATOM     17  C   UNL     1      18.862   3.437  16.407  0.00  0.00    -0.047 A 
ATOM     18  C   UNL     1      19.403   4.425  15.582  0.00  0.00    -0.056 A 
ATOM     19 BR   UNL     1      18.959   1.404  18.405  0.00  0.00    -0.050 Br
ATOM     20  C   UNL     1      21.614   3.887  16.393  0.00  0.00    -0.056 A 
ENDBRANCH  13  14
ENDBRANCH   7  13
TORSDOF 4
ENDMDL
