MODEL 1
REMARK VINA RESULT:    -7.393      0.000      0.000
REMARK INTER + INTRA:          -8.482
REMARK INTER:                  -8.906
REMARK INTRA:                   0.424
REMARK UNBOUND:                 0.424
REMARK  Name = 4b.sdf
REMARK  4 active torsions:
REMARK  status: ('A' for Active; 'I' for Inactive)
REMARK    1  A    between atoms: N_7  and  C_11
REMARK    2  A    between atoms: C_9  and  C_10
REMARK    3  A    between atoms: C_10  and  O_18
REMARK    4  A    between atoms: C_11  and  C_12
REMARK                            x       y       z     vdW  Elec       q    Type
REMARK                         _______ _______ _______ _____ _____    ______ ____
ROOT
ATOM      1  C   UNL     1      20.515   8.907  10.606  0.00  0.00    -0.061 A 
ATOM      2  C   UNL     1      21.422   9.191  11.623  0.00  0.00    -0.060 A 
ATOM      3  C   UNL     1      21.685   8.266  12.641  0.00  0.00    -0.038 A 
ATOM      4  C   UNL     1      20.991   7.043  12.632  0.00  0.00    +0.050 A 
ATOM      5  C   UNL     1      20.130   6.715  11.577  0.00  0.00    +0.005 A 
ATOM      6  C   UNL     1      19.884   7.666  10.562  0.00  0.00    -0.052 A 
ATOM      7  N   UNL     1      20.945   5.985  13.526  0.00  0.00    -0.342 N 
ATOM      8  C   UNL     1      20.161   4.982  13.004  0.00  0.00    +0.011 A 
ATOM      9  C   UNL     1      19.658   5.382  11.791  0.00  0.00    +0.003 A 
ENDROOT
BRANCH   9  10
ATOM     10  C   UNL     1      18.754   4.617  10.884  0.00  0.00    +0.071 C 
BRANCH  10  11
ATOM     11  O   UNL     1      17.494   4.349  11.490  0.00  0.00    -0.390 OA
ATOM     12  H   UNL     1      17.390   4.907  12.277  0.00  0.00    +0.000 HD
ENDBRANCH  10  11
ENDBRANCH   9  10
BRANCH   7  13
ATOM     13  C   UNL     1      21.477   5.953  14.893  0.00  0.00    +0.048 C 
BRANCH  13  14
ATOM     14  C   UNL     1      20.865   4.847  15.716  0.00  0.00    -0.025 A 
ATOM     15  C   UNL     1      21.661   4.072  16.563  0.00  0.00    -0.039 A 
ATOM     16  C   UNL     1      21.091   2.983  17.205  0.00  0.00    +0.028 A 
ATOM     17  N   UNL     1      19.790   2.644  17.097  0.00  0.00    -0.263 NA
ATOM     18  C   UNL     1      19.022   3.432  16.316  0.00  0.00    +0.028 A 
ATOM     19  C   UNL     1      19.504   4.532  15.620  0.00  0.00    -0.039 A 
ENDBRANCH  13  14
ENDBRANCH   7  13
TORSDOF 4
ENDMDL
