MODEL 1
REMARK VINA RESULT:    -8.456      0.000      0.000
REMARK INTER + INTRA:          -9.312
REMARK INTER:                  -9.692
REMARK INTRA:                   0.380
REMARK UNBOUND:                 0.380
REMARK  Name = 4d.sdf
REMARK  3 active torsions:
REMARK  status: ('A' for Active; 'I' for Inactive)
REMARK    1  A    between atoms: C_9  and  C_10
REMARK    2  A    between atoms: C_10  and  O_18
REMARK    3  A    between atoms: C_11  and  C_12
REMARK                            x       y       z     vdW  Elec       q    Type
REMARK                         _______ _______ _______ _____ _____    ______ ____
ROOT
ATOM      1  C   UNL     1      18.067   1.110  18.754  0.00  0.00    -0.061 A 
ATOM      2  C   UNL     1      19.334   1.633  18.977  0.00  0.00    -0.060 A 
ATOM      3  C   UNL     1      19.978   2.397  17.999  0.00  0.00    -0.037 A 
ATOM      4  C   UNL     1      19.318   2.621  16.776  0.00  0.00    +0.057 A 
ATOM      5  C   UNL     1      18.037   2.106  16.538  0.00  0.00    +0.006 A 
ATOM      6  C   UNL     1      17.410   1.339  17.543  0.00  0.00    -0.052 A 
ATOM      7  N   UNL     1      19.689   3.372  15.661  0.00  0.00    -0.283 N 
ATOM      8  C   UNL     1      18.675   3.261  14.723  0.00  0.00    +0.019 A 
ATOM      9  C   UNL     1      17.637   2.514  15.232  0.00  0.00    +0.004 A 
ATOM     10  C   UNL     1      20.874   4.136  15.491  0.00  0.00    +0.263 C 
ATOM     11  O   UNL     1      21.863   3.836  16.153  0.00  0.00    -0.267 OA
ENDROOT
BRANCH  10  12
ATOM     12  C   UNL     1      20.962   5.279  14.545  0.00  0.00    +0.040 A 
ATOM     13  C   UNL     1      21.799   6.366  14.837  0.00  0.00    -0.049 A 
ATOM     14  C   UNL     1      21.834   7.468  13.984  0.00  0.00    -0.061 A 
ATOM     15  C   UNL     1      21.061   7.473  12.826  0.00  0.00    -0.062 A 
ATOM     16  C   UNL     1      20.273   6.366  12.503  0.00  0.00    -0.061 A 
ATOM     17  C   UNL     1      20.226   5.263  13.357  0.00  0.00    -0.049 A 
ENDBRANCH  10  12
BRANCH   9  18
ATOM     18  C   UNL     1      16.355   2.204  14.539  0.00  0.00    +0.071 C 
BRANCH  18  19
ATOM     19  O   UNL     1      16.532   2.148  13.129  0.00  0.00    -0.390 OA
ATOM     20  H   UNL     1      15.884   1.537  12.745  0.00  0.00    +0.000 HD
ENDBRANCH  18  19
ENDBRANCH   9  18
TORSDOF 3
ENDMDL
