MODEL 1
REMARK VINA RESULT:    -7.593      0.000      0.000
REMARK INTER + INTRA:         -10.525
REMARK INTER:                  -9.812
REMARK INTRA:                  -0.713
REMARK UNBOUND:                -0.713
REMARK  Name = 5a.sdf
REMARK  6 active torsions:
REMARK  status: ('A' for Active; 'I' for Inactive)
REMARK    1  A    between atoms: N_7  and  C_12
REMARK    2  A    between atoms: C_9  and  C_10
REMARK    3  A    between atoms: C_11  and  C_20
REMARK    4  A    between atoms: C_12  and  C_13
REMARK    5  A    between atoms: C_20  and  O_21
REMARK    6  A    between atoms: O_21  and  C_23
REMARK                            x       y       z     vdW  Elec       q    Type
REMARK                         _______ _______ _______ _____ _____    ______ ____
ROOT
ATOM      1  C   UNL     1      22.130   4.783  16.775  0.00  0.00    -0.061 A 
ATOM      2  C   UNL     1      22.606   5.493  15.676  0.00  0.00    -0.060 A 
ATOM      3  C   UNL     1      21.870   5.551  14.481  0.00  0.00    -0.038 A 
ATOM      4  C   UNL     1      20.645   4.855  14.404  0.00  0.00    +0.050 A 
ATOM      5  C   UNL     1      20.124   4.188  15.526  0.00  0.00    +0.007 A 
ATOM      6  C   UNL     1      20.888   4.153  16.715  0.00  0.00    -0.052 A 
ATOM      7  N   UNL     1      19.752   4.641  13.365  0.00  0.00    -0.342 N 
ATOM      8  C   UNL     1      18.647   3.952  13.841  0.00  0.00    +0.013 A 
ATOM      9  C   UNL     1      18.839   3.665  15.177  0.00  0.00    +0.000 A 
ENDROOT
BRANCH   9  10
ATOM     10  C   UNL     1      17.947   2.976  16.079  0.00  0.00    -0.046 C 
ATOM     11  C   UNL     1      18.157   1.793  16.676  0.00  0.00    +0.023 C 
BRANCH  11  12
ATOM     12  C   UNL     1      17.230   1.055  17.586  0.00  0.00    +0.332 C 
ATOM     13  O   UNL     1      16.213   0.541  17.159  0.00  0.00    -0.246 OA
BRANCH  12  14
ATOM     14  O   UNL     1      17.632   1.037  18.883  0.00  0.00    -0.465 OA
ATOM     15  C   UNL     1      19.053   1.115  19.067  0.00  0.00    +0.082 C 
ENDBRANCH  12  14
ENDBRANCH  11  12
ENDBRANCH   9  10
BRANCH   7  16
ATOM     16  C   UNL     1      19.967   4.936  11.941  0.00  0.00    +0.048 C 
BRANCH  16  17
ATOM     17  C   UNL     1      19.555   6.343  11.580  0.00  0.00    -0.028 A 
ATOM     18  C   UNL     1      18.375   6.573  10.859  0.00  0.00    -0.056 A 
ATOM     19  C   UNL     1      18.102   7.835  10.331  0.00  0.00    -0.047 A 
ATOM     20  C   UNL     1      18.990   8.884  10.553  0.00  0.00    +0.018 A 
ATOM     21  C   UNL     1      20.106   8.702  11.367  0.00  0.00    -0.047 A 
ATOM     22  C   UNL     1      20.385   7.434  11.883  0.00  0.00    -0.056 A 
ATOM     23 BR   UNL     1      18.722  10.541   9.685  0.00  0.00    -0.050 Br
ENDBRANCH  16  17
ENDBRANCH   7  16
TORSDOF 5
ENDMDL
