MODEL 1
REMARK VINA RESULT:    -7.322      0.000      0.000
REMARK INTER + INTRA:         -10.308
REMARK INTER:                  -9.462
REMARK INTRA:                  -0.846
REMARK UNBOUND:                -0.846
REMARK  Name = 5c.sdf
REMARK  6 active torsions:
REMARK  status: ('A' for Active; 'I' for Inactive)
REMARK    1  A    between atoms: N_7  and  C_12
REMARK    2  A    between atoms: C_9  and  C_10
REMARK    3  A    between atoms: C_11  and  C_20
REMARK    4  A    between atoms: C_12  and  C_13
REMARK    5  A    between atoms: C_20  and  O_21
REMARK    6  A    between atoms: O_21  and  C_23
REMARK                            x       y       z     vdW  Elec       q    Type
REMARK                         _______ _______ _______ _____ _____    ______ ____
ROOT
ATOM      1  C   UNL     1      21.408   6.045  15.306  0.00  0.00    -0.061 A 
ATOM      2  C   UNL     1      21.548   6.452  13.985  0.00  0.00    -0.060 A 
ATOM      3  C   UNL     1      20.744   5.911  12.977  0.00  0.00    -0.038 A 
ATOM      4  C   UNL     1      19.784   4.946  13.332  0.00  0.00    +0.050 A 
ATOM      5  C   UNL     1      19.599   4.549  14.663  0.00  0.00    +0.007 A 
ATOM      6  C   UNL     1      20.436   5.104  15.656  0.00  0.00    -0.052 A 
ATOM      7  N   UNL     1      18.890   4.218  12.567  0.00  0.00    -0.342 N 
ATOM      8  C   UNL     1      18.116   3.423  13.383  0.00  0.00    +0.013 A 
ATOM      9  C   UNL     1      18.520   3.610  14.687  0.00  0.00    +0.000 A 
ENDROOT
BRANCH   9  10
ATOM     10  C   UNL     1      17.966   2.984  15.853  0.00  0.00    -0.046 C 
ATOM     11  C   UNL     1      18.441   1.876  16.446  0.00  0.00    +0.023 C 
BRANCH  11  12
ATOM     12  C   UNL     1      17.858   1.226  17.638  0.00  0.00    +0.332 C 
ATOM     13  O   UNL     1      16.655   1.264  17.860  0.00  0.00    -0.246 OA
BRANCH  12  14
ATOM     14  O   UNL     1      18.785   0.610  18.409  0.00  0.00    -0.465 OA
ATOM     15  C   UNL     1      19.634   1.518  19.118  0.00  0.00    +0.082 C 
ENDBRANCH  12  14
ENDBRANCH  11  12
ENDBRANCH   9  10
BRANCH   7  16
ATOM     16  C   UNL     1      18.807   4.217  11.106  0.00  0.00    +0.048 C 
BRANCH  16  17
ATOM     17  C   UNL     1      17.843   5.267  10.611  0.00  0.00    -0.028 A 
ATOM     18  C   UNL     1      18.271   6.587  10.406  0.00  0.00    -0.055 A 
ATOM     19  C   UNL     1      17.350   7.591  10.101  0.00  0.00    -0.043 A 
ATOM     20  C   UNL     1      15.999   7.279   9.981  0.00  0.00    +0.041 A 
ATOM     21  C   UNL     1      15.567   5.961  10.114  0.00  0.00    -0.043 A 
ATOM     22  C   UNL     1      16.486   4.957  10.424  0.00  0.00    -0.055 A 
ATOM     23 CL   UNL     1      14.854   8.531   9.697  0.00  0.00    -0.084 Cl
ENDBRANCH  16  17
ENDBRANCH   7  16
TORSDOF 5
ENDMDL
