MODEL 1
REMARK VINA RESULT:    -8.374      0.000      0.000
REMARK INTER + INTRA:         -10.229
REMARK INTER:                 -10.332
REMARK INTRA:                   0.103
REMARK UNBOUND:                 0.103
REMARK  Name = 5d.sdf
REMARK  5 active torsions:
REMARK  status: ('A' for Active; 'I' for Inactive)
REMARK    1  A    between atoms: C_9  and  C_10
REMARK    2  A    between atoms: C_11  and  C_19
REMARK    3  A    between atoms: C_12  and  C_13
REMARK    4  A    between atoms: C_19  and  O_20
REMARK    5  A    between atoms: O_20  and  C_22
REMARK                            x       y       z     vdW  Elec       q    Type
REMARK                         _______ _______ _______ _____ _____    ______ ____
ROOT
ATOM      1  C   UNL     1      18.196   1.030  19.119  0.00  0.00    -0.061 A 
ATOM      2  C   UNL     1      19.474   1.562  19.224  0.00  0.00    -0.060 A 
ATOM      3  C   UNL     1      20.036   2.285  18.169  0.00  0.00    -0.037 A 
ATOM      4  C   UNL     1      19.282   2.463  16.993  0.00  0.00    +0.057 A 
ATOM      5  C   UNL     1      17.987   1.938  16.869  0.00  0.00    +0.007 A 
ATOM      6  C   UNL     1      17.447   1.210  17.951  0.00  0.00    -0.052 A 
ATOM      7  N   UNL     1      19.567   3.178  15.830  0.00  0.00    -0.283 N 
ATOM      8  C   UNL     1      18.491   3.024  14.966  0.00  0.00    +0.021 A 
ATOM      9  C   UNL     1      17.496   2.300  15.579  0.00  0.00    +0.001 A 
ATOM     10  C   UNL     1      20.725   3.953  15.560  0.00  0.00    +0.263 C 
ATOM     11  O   UNL     1      21.759   3.701  16.174  0.00  0.00    -0.267 OA
ENDROOT
BRANCH  10  12
ATOM     12  C   UNL     1      20.736   5.060  14.568  0.00  0.00    +0.040 A 
ATOM     13  C   UNL     1      19.991   4.944  13.386  0.00  0.00    -0.049 A 
ATOM     14  C   UNL     1      20.053   5.945  12.420  0.00  0.00    -0.061 A 
ATOM     15  C   UNL     1      20.829   7.081  12.648  0.00  0.00    -0.062 A 
ATOM     16  C   UNL     1      21.520   7.229  13.852  0.00  0.00    -0.061 A 
ATOM     17  C   UNL     1      21.469   6.224  14.821  0.00  0.00    -0.049 A 
ENDBRANCH  10  12
BRANCH   9  18
ATOM     18  C   UNL     1      16.216   1.979  15.012  0.00  0.00    -0.046 C 
ATOM     19  C   UNL     1      15.617   2.654  14.016  0.00  0.00    +0.023 C 
BRANCH  19  20
ATOM     20  C   UNL     1      14.300   2.356  13.415  0.00  0.00    +0.332 C 
ATOM     21  O   UNL     1      13.976   2.829  12.335  0.00  0.00    -0.246 OA
BRANCH  20  22
ATOM     22  O   UNL     1      13.541   1.537  14.183  0.00  0.00    -0.465 OA
ATOM     23  C   UNL     1      12.153   1.887  14.182  0.00  0.00    +0.082 C 
ENDBRANCH  20  22
ENDBRANCH  19  20
ENDBRANCH   9  18
TORSDOF 4
ENDMDL
