MODEL 1
REMARK VINA RESULT:    -6.958      0.000      0.000
REMARK INTER + INTRA:          -9.014
REMARK INTER:                  -8.789
REMARK INTRA:                  -0.225
REMARK UNBOUND:                -0.225
REMARK  Name = 6.sdf
REMARK  6 active torsions:
REMARK  status: ('A' for Active; 'I' for Inactive)
REMARK    1  A    between atoms: C_9  and  C_10
REMARK    2  A    between atoms: C_10  and  C_11
REMARK    3  A    between atoms: C_11  and  C_12
REMARK    4  A    between atoms: C_11  and  N_15
REMARK    5  A    between atoms: C_12  and  O_13
REMARK    6  A    between atoms: O_13  and  C_16
REMARK                            x       y       z     vdW  Elec       q    Type
REMARK                         _______ _______ _______ _____ _____    ______ ____
ROOT
ATOM      1  C   UNL     1      21.464   6.050  15.254  0.00  0.00    -0.061 A 
ATOM      2  C   UNL     1      21.490   6.407  13.908  0.00  0.00    -0.060 A 
ATOM      3  C   UNL     1      20.617   5.812  12.994  0.00  0.00    -0.038 A 
ATOM      4  C   UNL     1      19.708   4.867  13.482  0.00  0.00    +0.047 A 
ATOM      5  C   UNL     1      19.638   4.503  14.829  0.00  0.00    +0.003 A 
ATOM      6  C   UNL     1      20.549   5.102  15.726  0.00  0.00    -0.052 A 
ATOM      7  N   UNL     1      18.747   4.144  12.816  0.00  0.00    -0.360 N 
ATOM      8  C   UNL     1      18.045   3.368  13.695  0.00  0.00    +0.006 A 
ATOM      9  C   UNL     1      18.559   3.566  14.964  0.00  0.00    -0.020 A 
ATOM     10  H   UNL     1      18.588   4.179  11.846  0.00  0.00    +0.000 HD
ENDROOT
BRANCH   9  11
ATOM     11  C   UNL     1      18.039   2.953  16.234  0.00  0.00    -0.000 C 
BRANCH  11  12
ATOM     12  C   UNL     1      18.573   1.545  16.526  0.00  0.00    +0.107 C 
BRANCH  12  13
ATOM     13  N   UNL     1      17.747   0.530  15.810  0.00  0.00    -0.318 N 
ATOM     14  H   UNL     1      17.163   0.996  15.117  0.00  0.00    +0.000 HD
ATOM     15  H   UNL     1      17.155   0.040  16.480  0.00  0.00    +0.000 HD
ATOM     16  H   UNL     1      18.360  -0.138  15.344  0.00  0.00    +0.000 HD
ENDBRANCH  12  13
BRANCH  12  17
ATOM     17  C   UNL     1      18.523   1.282  18.038  0.00  0.00    +0.324 C 
ATOM     18  O   UNL     1      17.550   0.820  18.621  0.00  0.00    -0.249 OA
BRANCH  17  19
ATOM     19  O   UNL     1      19.704   1.630  18.617  0.00  0.00    -0.467 OA
ATOM     20  C   UNL     1      20.079   0.902  19.788  0.00  0.00    +0.082 C 
ENDBRANCH  17  19
ENDBRANCH  12  17
ENDBRANCH  11  12
ENDBRANCH   9  11
TORSDOF 5
ENDMDL
