MODEL 1
REMARK VINA RESULT:    -6.505      0.000      0.000
REMARK INTER + INTRA:          -7.940
REMARK INTER:                  -7.645
REMARK INTRA:                  -0.294
REMARK UNBOUND:                -0.294
REMARK  Name = 7.sdf
REMARK  4 active torsions:
REMARK  status: ('A' for Active; 'I' for Inactive)
REMARK    1  A    between atoms: C_9  and  C_10
REMARK    2  A    between atoms: C_10  and  C_11
REMARK    3  A    between atoms: C_11  and  O_13
REMARK    4  A    between atoms: O_13  and  C_14
REMARK                            x       y       z     vdW  Elec       q    Type
REMARK                         _______ _______ _______ _____ _____    ______ ____
ROOT
ATOM      1  C   UNL     1      22.673   3.967  16.531  0.00  0.00    -0.061 A 
ATOM      2  C   UNL     1      22.391   5.169  15.885  0.00  0.00    -0.060 A 
ATOM      3  C   UNL     1      21.099   5.458  15.440  0.00  0.00    -0.038 A 
ATOM      4  C   UNL     1      20.101   4.505  15.675  0.00  0.00    +0.047 A 
ATOM      5  C   UNL     1      20.343   3.299  16.334  0.00  0.00    +0.003 A 
ATOM      6  C   UNL     1      21.661   3.026  16.762  0.00  0.00    -0.052 A 
ATOM      7  N   UNL     1      18.767   4.524  15.344  0.00  0.00    -0.360 N 
ATOM      8  C   UNL     1      18.148   3.396  15.805  0.00  0.00    +0.006 A 
ATOM      9  C   UNL     1      19.092   2.604  16.433  0.00  0.00    -0.012 A 
ATOM     10  H   UNL     1      18.321   5.248  14.847  0.00  0.00    +0.000 HD
ENDROOT
BRANCH   9  11
ATOM     11  C   UNL     1      18.830   1.303  17.126  0.00  0.00    +0.072 C 
BRANCH  11  12
ATOM     12  C   UNL     1      18.277   1.443  18.529  0.00  0.00    +0.311 C 
ATOM     13  O   UNL     1      17.125   1.247  18.890  0.00  0.00    -0.250 OA
BRANCH  12  14
ATOM     14  O   UNL     1      19.290   1.854  19.355  0.00  0.00    -0.468 OA
ATOM     15  C   UNL     1      20.156   0.813  19.814  0.00  0.00    +0.082 C 
ENDBRANCH  12  14
ENDBRANCH  11  12
ENDBRANCH   9  11
TORSDOF 3
ENDMDL
