MODEL 1
REMARK VINA RESULT:    -8.351      0.000      0.000
REMARK INTER + INTRA:         -10.661
REMARK INTER:                 -10.792
REMARK INTRA:                   0.131
REMARK UNBOUND:                 0.131
REMARK  Name = 7a.sdf
REMARK  6 active torsions:
REMARK  status: ('A' for Active; 'I' for Inactive)
REMARK    1  A    between atoms: N_7  and  C_12
REMARK    2  A    between atoms: C_9  and  C_10
REMARK    3  A    between atoms: C_10  and  C_11
REMARK    4  A    between atoms: C_11  and  O_21
REMARK    5  A    between atoms: C_12  and  C_13
REMARK    6  A    between atoms: O_21  and  C_22
REMARK                            x       y       z     vdW  Elec       q    Type
REMARK                         _______ _______ _______ _____ _____    ______ ____
ROOT
ATOM      1  C   UNL     1      20.641   8.839  10.476  0.00  0.00    -0.061 A 
ATOM      2  C   UNL     1      21.458   9.132  11.563  0.00  0.00    -0.060 A 
ATOM      3  C   UNL     1      21.601   8.224  12.625  0.00  0.00    -0.038 A 
ATOM      4  C   UNL     1      20.872   7.020  12.583  0.00  0.00    +0.050 A 
ATOM      5  C   UNL     1      20.093   6.685  11.465  0.00  0.00    +0.004 A 
ATOM      6  C   UNL     1      19.979   7.613  10.406  0.00  0.00    -0.052 A 
ATOM      7  N   UNL     1      20.717   5.988  13.499  0.00  0.00    -0.342 N 
ATOM      8  C   UNL     1      19.965   4.985  12.936  0.00  0.00    +0.010 A 
ATOM      9  C   UNL     1      19.572   5.369  11.670  0.00  0.00    -0.012 A 
ENDROOT
BRANCH   9  10
ATOM     10  C   UNL     1      18.766   4.550  10.709  0.00  0.00    +0.072 C 
BRANCH  10  11
ATOM     11  C   UNL     1      17.409   4.134  11.241  0.00  0.00    +0.311 C 
ATOM     12  O   UNL     1      16.332   4.659  10.967  0.00  0.00    -0.250 OA
BRANCH  11  13
ATOM     13  O   UNL     1      17.554   3.077  12.094  0.00  0.00    -0.468 OA
ATOM     14  C   UNL     1      16.487   2.957  13.042  0.00  0.00    +0.082 C 
ENDBRANCH  11  13
ENDBRANCH  10  11
ENDBRANCH   9  10
BRANCH   7  15
ATOM     15  C   UNL     1      21.136   5.962  14.904  0.00  0.00    +0.048 C 
BRANCH  15  16
ATOM     16  C   UNL     1      20.687   4.704  15.610  0.00  0.00    -0.028 A 
ATOM     17  C   UNL     1      19.335   4.339  15.594  0.00  0.00    -0.056 A 
ATOM     18  C   UNL     1      18.871   3.309  16.413  0.00  0.00    -0.047 A 
ATOM     19  C   UNL     1      19.766   2.616  17.224  0.00  0.00    +0.018 A 
ATOM     20  C   UNL     1      21.130   2.889  17.166  0.00  0.00    -0.047 A 
ATOM     21  C   UNL     1      21.590   3.931  16.357  0.00  0.00    -0.056 A 
ATOM     22 BR   UNL     1      19.113   1.354  18.472  0.00  0.00    -0.050 Br
ENDBRANCH  15  16
ENDBRANCH   7  15
TORSDOF 5
ENDMDL
