MODEL 1
REMARK VINA RESULT:    -7.563      0.000      0.000
REMARK INTER + INTRA:          -9.741
REMARK INTER:                  -9.774
REMARK INTRA:                   0.033
REMARK UNBOUND:                 0.033
REMARK  Name = 7b.sdf
REMARK  6 active torsions:
REMARK  status: ('A' for Active; 'I' for Inactive)
REMARK    1  A    between atoms: N_7  and  C_12
REMARK    2  A    between atoms: C_9  and  C_10
REMARK    3  A    between atoms: C_10  and  C_11
REMARK    4  A    between atoms: C_11  and  O_20
REMARK    5  A    between atoms: C_12  and  C_13
REMARK    6  A    between atoms: O_20  and  C_21
REMARK                            x       y       z     vdW  Elec       q    Type
REMARK                         _______ _______ _______ _____ _____    ______ ____
ROOT
ATOM      1  C   UNL     1      20.691   8.877  10.450  0.00  0.00    -0.061 A 
ATOM      2  C   UNL     1      21.444   9.167  11.583  0.00  0.00    -0.060 A 
ATOM      3  C   UNL     1      21.524   8.262  12.645  0.00  0.00    -0.038 A 
ATOM      4  C   UNL     1      20.821   7.051  12.540  0.00  0.00    +0.050 A 
ATOM      5  C   UNL     1      20.091   6.718  11.393  0.00  0.00    +0.004 A 
ATOM      6  C   UNL     1      20.023   7.654  10.339  0.00  0.00    -0.052 A 
ATOM      7  N   UNL     1      20.675   6.001  13.423  0.00  0.00    -0.342 N 
ATOM      8  C   UNL     1      19.934   4.999  12.849  0.00  0.00    +0.010 A 
ATOM      9  C   UNL     1      19.565   5.400  11.580  0.00  0.00    -0.012 A 
ENDROOT
BRANCH   9  10
ATOM     10  C   UNL     1      18.758   4.605  10.601  0.00  0.00    +0.072 C 
BRANCH  10  11
ATOM     11  C   UNL     1      17.411   4.177  11.147  0.00  0.00    +0.311 C 
ATOM     12  O   UNL     1      16.323   4.683  10.903  0.00  0.00    -0.250 OA
BRANCH  11  13
ATOM     13  O   UNL     1      17.590   3.099  11.972  0.00  0.00    -0.468 OA
ATOM     14  C   UNL     1      16.653   3.032  13.048  0.00  0.00    +0.082 C 
ENDBRANCH  11  13
ENDBRANCH  10  11
ENDBRANCH   9  10
BRANCH   7  15
ATOM     15  C   UNL     1      21.152   5.968  14.805  0.00  0.00    +0.048 C 
BRANCH  15  16
ATOM     16  C   UNL     1      20.640   4.811  15.628  0.00  0.00    -0.025 A 
ATOM     17  C   UNL     1      19.306   4.391  15.640  0.00  0.00    -0.039 A 
ATOM     18  C   UNL     1      18.943   3.332  16.459  0.00  0.00    +0.028 A 
ATOM     19  N   UNL     1      19.807   2.655  17.243  0.00  0.00    -0.263 NA
ATOM     20  C   UNL     1      21.094   3.055  17.207  0.00  0.00    +0.028 A 
ATOM     21  C   UNL     1      21.552   4.107  16.426  0.00  0.00    -0.039 A 
ENDBRANCH  15  16
ENDBRANCH   7  15
TORSDOF 5
ENDMDL
