MODEL 1
REMARK VINA RESULT:    -8.681      0.000      0.000
REMARK INTER + INTRA:         -10.026
REMARK INTER:                 -10.710
REMARK INTRA:                   0.685
REMARK UNBOUND:                 0.685
REMARK  Name = 7d.sdf
REMARK  5 active torsions:
REMARK  status: ('A' for Active; 'I' for Inactive)
REMARK    1  A    between atoms: C_9  and  C_10
REMARK    2  A    between atoms: C_10  and  C_11
REMARK    3  A    between atoms: C_11  and  O_20
REMARK    4  A    between atoms: C_12  and  C_13
REMARK    5  A    between atoms: O_20  and  C_22
REMARK                            x       y       z     vdW  Elec       q    Type
REMARK                         _______ _______ _______ _____ _____    ______ ____
ROOT
ATOM      1  C   UNL     1      18.106   1.024  18.979  0.00  0.00    -0.061 A 
ATOM      2  C   UNL     1      19.369   1.551  19.221  0.00  0.00    -0.060 A 
ATOM      3  C   UNL     1      20.024   2.318  18.252  0.00  0.00    -0.037 A 
ATOM      4  C   UNL     1      19.380   2.540  17.020  0.00  0.00    +0.057 A 
ATOM      5  C   UNL     1      18.101   2.025  16.762  0.00  0.00    +0.004 A 
ATOM      6  C   UNL     1      17.464   1.256  17.760  0.00  0.00    -0.052 A 
ATOM      7  N   UNL     1      19.760   3.302  15.916  0.00  0.00    -0.283 N 
ATOM      8  C   UNL     1      18.784   3.154  14.947  0.00  0.00    +0.018 A 
ATOM      9  C   UNL     1      17.716   2.445  15.454  0.00  0.00    -0.011 A 
ATOM     10  C   UNL     1      20.914   4.113  15.776  0.00  0.00    +0.263 C 
ATOM     11  O   UNL     1      21.898   3.864  16.466  0.00  0.00    -0.267 OA
ENDROOT
BRANCH  10  12
ATOM     12  C   UNL     1      20.970   5.252  14.821  0.00  0.00    +0.040 A 
ATOM     13  C   UNL     1      20.179   5.232  13.664  0.00  0.00    -0.049 A 
ATOM     14  C   UNL     1      20.276   6.265  12.733  0.00  0.00    -0.061 A 
ATOM     15  C   UNL     1      21.138   7.333  12.970  0.00  0.00    -0.062 A 
ATOM     16  C   UNL     1      21.890   7.380  14.147  0.00  0.00    -0.061 A 
ATOM     17  C   UNL     1      21.804   6.342  15.084  0.00  0.00    -0.049 A 
ENDBRANCH  10  12
BRANCH   9  18
ATOM     18  C   UNL     1      16.429   2.177  14.736  0.00  0.00    +0.072 C 
BRANCH  18  19
ATOM     19  C   UNL     1      16.418   2.724  13.316  0.00  0.00    +0.311 C 
ATOM     20  O   UNL     1      17.348   2.706  12.521  0.00  0.00    -0.250 OA
BRANCH  19  21
ATOM     21  O   UNL     1      15.181   3.237  13.042  0.00  0.00    -0.468 OA
ATOM     22  C   UNL     1      14.105   2.382  13.435  0.00  0.00    +0.082 C 
ENDBRANCH  19  21
ENDBRANCH  18  19
ENDBRANCH   9  18
TORSDOF 4
ENDMDL
