MODEL 1
REMARK VINA RESULT:    -8.296      0.000      0.000
REMARK INTER + INTRA:         -11.270
REMARK INTER:                 -10.720
REMARK INTRA:                  -0.550
REMARK UNBOUND:                -0.550
REMARK  Name = 8b.sdf
REMARK  5 active torsions:
REMARK  status: ('A' for Active; 'I' for Inactive)
REMARK    1  A    between atoms: N_7  and  C_12
REMARK    2  A    between atoms: C_9  and  C_10
REMARK    3  A    between atoms: N_11  and  N_19
REMARK    4  A    between atoms: C_12  and  C_13
REMARK    5  A    between atoms: C_20  and  C_22
REMARK                            x       y       z     vdW  Elec       q    Type
REMARK                         _______ _______ _______ _____ _____    ______ ____
ROOT
ATOM      1  C   UNL     1      22.228  10.429  11.143  0.00  0.00    -0.061 A 
ATOM      2  C   UNL     1      21.930  11.069   9.946  0.00  0.00    -0.060 A 
ATOM      3  C   UNL     1      20.970  10.549   9.070  0.00  0.00    -0.038 A 
ATOM      4  C   UNL     1      20.310   9.360   9.429  0.00  0.00    +0.050 A 
ATOM      5  C   UNL     1      20.555   8.731  10.657  0.00  0.00    +0.009 A 
ATOM      6  C   UNL     1      21.538   9.272  11.515  0.00  0.00    -0.052 A 
ATOM      7  N   UNL     1      19.382   8.583   8.758  0.00  0.00    -0.342 N 
ATOM      8  C   UNL     1      18.983   7.544   9.561  0.00  0.00    +0.015 A 
ATOM      9  C   UNL     1      19.672   7.612  10.755  0.00  0.00    +0.020 A 
ENDROOT
BRANCH   9  10
ATOM     10  C   UNL     1      19.518   6.711  11.880  0.00  0.00    +0.055 C 
ATOM     11  N   UNL     1      20.442   5.841  12.136  0.00  0.00    -0.187 NA
BRANCH  11  12
ATOM     12  N   UNL     1      20.211   5.021  13.202  0.00  0.00    -0.203 N 
ATOM     13  C   UNL     1      20.869   5.262  14.405  0.00  0.00    +0.263 C 
ATOM     14  O   UNL     1      21.652   6.181  14.610  0.00  0.00    -0.268 OA
ATOM     15  H   UNL     1      19.585   4.266  13.122  0.00  0.00    +0.000 HD
BRANCH  13  16
ATOM     16  C   UNL     1      20.535   4.330  15.520  0.00  0.00    +0.038 A 
ATOM     17  C   UNL     1      21.471   3.947  16.490  0.00  0.00    -0.049 A 
ATOM     18  C   UNL     1      21.107   3.057  17.506  0.00  0.00    -0.047 A 
ATOM     19  C   UNL     1      19.804   2.559  17.559  0.00  0.00    +0.018 A 
ATOM     20  C   UNL     1      18.858   2.955  16.619  0.00  0.00    -0.047 A 
ATOM     21  C   UNL     1      19.221   3.843  15.603  0.00  0.00    -0.049 A 
ATOM     22 BR   UNL     1      19.321   1.342  18.923  0.00  0.00    -0.050 Br
ENDBRANCH  13  16
ENDBRANCH  11  12
ENDBRANCH   9  10
BRANCH   7  23
ATOM     23  C   UNL     1      18.966   8.725   7.364  0.00  0.00    +0.048 C 
BRANCH  23  24
ATOM     24  C   UNL     1      17.901   7.730   6.985  0.00  0.00    -0.025 A 
ATOM     25  C   UNL     1      18.226   6.570   6.275  0.00  0.00    -0.039 A 
ATOM     26  C   UNL     1      17.203   5.722   5.879  0.00  0.00    +0.028 A 
ATOM     27  N   UNL     1      15.901   5.933   6.158  0.00  0.00    -0.263 NA
ATOM     28  C   UNL     1      15.607   7.044   6.867  0.00  0.00    +0.028 A 
ATOM     29  C   UNL     1      16.557   7.956   7.300  0.00  0.00    -0.039 A 
ENDBRANCH  23  24
ENDBRANCH   7  23
TORSDOF 5
ENDMDL
