MODEL 1
REMARK VINA RESULT:    -8.683      0.000      0.000
REMARK INTER + INTRA:         -11.403
REMARK INTER:                 -10.713
REMARK INTRA:                  -0.689
REMARK UNBOUND:                -0.689
REMARK  Name = 8d.sdf
REMARK  4 active torsions:
REMARK  status: ('A' for Active; 'I' for Inactive)
REMARK    1  A    between atoms: C_9  and  C_10
REMARK    2  A    between atoms: N_11  and  N_19
REMARK    3  A    between atoms: C_12  and  C_13
REMARK    4  A    between atoms: C_20  and  C_22
REMARK                            x       y       z     vdW  Elec       q    Type
REMARK                         _______ _______ _______ _____ _____    ______ ____
ROOT
ATOM      1  C   UNL     1      22.080  10.408  11.113  0.00  0.00    -0.061 A 
ATOM      2  C   UNL     1      21.601  10.678   9.838  0.00  0.00    -0.060 A 
ATOM      3  C   UNL     1      20.678   9.827   9.225  0.00  0.00    -0.037 A 
ATOM      4  C   UNL     1      20.251   8.681   9.923  0.00  0.00    +0.057 A 
ATOM      5  C   UNL     1      20.706   8.400  11.219  0.00  0.00    +0.009 A 
ATOM      6  C   UNL     1      21.639   9.279  11.815  0.00  0.00    -0.052 A 
ATOM      7  N   UNL     1      19.342   7.686   9.568  0.00  0.00    -0.282 N 
ATOM      8  C   UNL     1      19.265   6.789  10.615  0.00  0.00    +0.023 A 
ATOM      9  C   UNL     1      20.070   7.199  11.657  0.00  0.00    +0.020 A 
ATOM     10  C   UNL     1      18.610   7.580   8.358  0.00  0.00    +0.263 C 
ATOM     11  O   UNL     1      19.116   8.050   7.335  0.00  0.00    -0.267 OA
ENDROOT
BRANCH  10  12
ATOM     12  C   UNL     1      17.292   6.904   8.274  0.00  0.00    +0.040 A 
ATOM     13  C   UNL     1      16.129   7.565   8.695  0.00  0.00    -0.049 A 
ATOM     14  C   UNL     1      14.918   6.878   8.747  0.00  0.00    -0.061 A 
ATOM     15  C   UNL     1      14.857   5.549   8.334  0.00  0.00    -0.062 A 
ATOM     16  C   UNL     1      15.995   4.916   7.830  0.00  0.00    -0.061 A 
ATOM     17  C   UNL     1      17.213   5.594   7.790  0.00  0.00    -0.049 A 
ENDBRANCH  10  12
BRANCH   9  18
ATOM     18  C   UNL     1      20.216   6.498  12.920  0.00  0.00    +0.055 C 
ATOM     19  N   UNL     1      19.636   5.351  13.069  0.00  0.00    -0.187 NA
BRANCH  19  20
ATOM     20  N   UNL     1      19.805   4.723  14.274  0.00  0.00    -0.203 N 
ATOM     21  C   UNL     1      18.887   3.756  14.673  0.00  0.00    +0.263 C 
ATOM     22  O   UNL     1      17.908   3.398  14.022  0.00  0.00    -0.268 OA
ATOM     23  H   UNL     1      20.567   4.952  14.852  0.00  0.00    +0.000 HD
BRANCH  21  24
ATOM     24  C   UNL     1      19.162   3.096  15.982  0.00  0.00    +0.038 A 
ATOM     25  C   UNL     1      20.296   3.397  16.749  0.00  0.00    -0.049 A 
ATOM     26  C   UNL     1      20.528   2.725  17.954  0.00  0.00    -0.047 A 
ATOM     27  C   UNL     1      19.622   1.763  18.399  0.00  0.00    +0.018 A 
ATOM     28  C   UNL     1      18.469   1.485  17.669  0.00  0.00    -0.047 A 
ATOM     29  C   UNL     1      18.237   2.155  16.464  0.00  0.00    -0.049 A 
ATOM     30 BR   UNL     1      19.965   0.827  20.006  0.00  0.00    -0.050 Br
ENDBRANCH  21  24
ENDBRANCH  19  20
ENDBRANCH   9  18
TORSDOF 4
ENDMDL
