MODEL 1
REMARK VINA RESULT:   -10.824      0.000      0.000
REMARK INTER + INTRA:         -12.617
REMARK INTER:                 -12.090
REMARK INTRA:                  -0.527
REMARK UNBOUND:                -0.527
REMARK  Name = native.pdb
REMARK  2 active torsions:
REMARK  status: ('A' for Active; 'I' for Inactive)
REMARK    1  A    between atoms: C_10  and  C_11
REMARK    2  A    between atoms: C_16  and  C_17
REMARK                            x       y       z     vdW  Elec       q    Type
REMARK                         _______ _______ _______ _____ _____    ______ ____
ROOT
ATOM      1  C   UNL     1      21.144   6.196  13.971  0.00  0.00    +0.073 A 
ATOM      2  C   UNL     1      20.245   5.201  14.346  0.00  0.00    -0.027 A 
ATOM      3  N   UNL     1      22.269   6.438  14.684  0.00  0.00    -0.255 NA
ATOM      4  C   UNL     1      22.499   5.674  15.775  0.00  0.00    +0.029 A 
ATOM      5  C   UNL     1      21.653   4.669  16.209  0.00  0.00    -0.034 A 
ATOM      6  C   UNL     1      20.491   4.427  15.484  0.00  0.00    +0.002 A 
ENDROOT
BRANCH   6   7
ATOM      7  C   UNL     1      19.500   3.440  15.910  0.00  0.00    +0.048 A 
ATOM      8  C   UNL     1      19.476   2.659  17.057  0.00  0.00    -0.024 A 
ATOM      9  C   UNL     1      18.324   1.842  17.016  0.00  0.00    +0.058 A 
ATOM     10  C   UNL     1      17.843   0.854  17.957  0.00  0.00    +0.246 C 
ATOM     11  O   UNL     1      18.419   0.570  19.000  0.00  0.00    -0.270 OA
ATOM     12  N   UNL     1      16.663   0.244  17.601  0.00  0.00    -0.311 N 
ATOM     13  C   UNL     1      15.910   0.444  16.366  0.00  0.00    +0.017 C 
ATOM     14  C   UNL     1      16.412   1.519  15.375  0.00  0.00    +0.004 C 
ATOM     15  C   UNL     1      17.668   2.145  15.845  0.00  0.00    +0.030 A 
ATOM     16  N   UNL     1      18.367   3.120  15.190  0.00  0.00    -0.357 N 
ATOM     17  H   UNL     1      16.287  -0.398  18.246  0.00  0.00    +0.000 HD
ATOM     18  H   UNL     1      18.104   3.531  14.335  0.00  0.00    +0.000 HD
ENDBRANCH   6   7
BRANCH   1  28
ATOM     19  C   UNL     1      21.575   8.281  12.622  0.00  0.00    -0.042 A 
ATOM     20  C   UNL     1      21.358   9.058  11.476  0.00  0.00    +0.001 A 
ATOM     21  C   UNL     1      22.040  10.269  11.272  0.00  0.00    -0.053 A 
ATOM     22  C   UNL     1      21.809  11.020  10.123  0.00  0.00    -0.061 A 
ATOM     23  C   UNL     1      20.901  10.560   9.175  0.00  0.00    -0.060 A 
ATOM     24  C   UNL     1      20.225   9.353   9.384  0.00  0.00    -0.036 A 
ATOM     25  C   UNL     1      20.434   8.588  10.523  0.00  0.00    +0.071 A 
ATOM     26  N   UNL     1      19.760   7.438  10.685  0.00  0.00    -0.254 NA
ATOM     27  C   UNL     1      20.001   6.716  11.811  0.00  0.00    +0.037 A 
ATOM     28  C   UNL     1      20.902   7.067  12.812  0.00  0.00    +0.019 A 
ENDBRANCH   1  28
TORSDOF 2
ENDMDL
