REMARK VINA RESULT:    -9.166      5.116      8.142
REMARK INTER + INTRA:         -11.813
REMARK INTER:                 -11.102
REMARK INTRA:                  -0.711
REMARK UNBOUND:                -0.504
REMARK  Name = 17c.sdf
REMARK  4 active torsions:
REMARK  status: ('A' for Active; 'I' for Inactive)
REMARK    1  A    between atoms: N_7  and  C_16
REMARK    2  A    between atoms: C_9  and  C_10
REMARK    3  A    between atoms: N_11  and  N_12
REMARK    4  A    between atoms: C_16  and  C_17
REMARK                            x       y       z     vdW  Elec       q    Type
REMARK                         _______ _______ _______ _____ _____    ______ ____
ROOT
ATOM      1  C   UNL     1     107.649  23.692  35.531  0.00  0.00    -0.061 A 
ATOM      2  C   UNL     1     106.920  24.780  35.996  0.00  0.00    -0.060 A 
ATOM      3  C   UNL     1     105.980  25.424  35.179  0.00  0.00    -0.038 A 
ATOM      4  C   UNL     1     105.812  24.968  33.859  0.00  0.00    +0.050 A 
ATOM      5  C   UNL     1     106.498  23.837  33.391  0.00  0.00    +0.009 A 
ATOM      6  C   UNL     1     107.427  23.198  34.244  0.00  0.00    -0.052 A 
ATOM      7  N   UNL     1     105.053  25.448  32.801  0.00  0.00    -0.342 N 
ATOM      8  C   UNL     1     105.179  24.595  31.729  0.00  0.00    +0.015 A 
ATOM      9  C   UNL     1     106.052  23.578  32.060  0.00  0.00    +0.020 A 
ENDROOT
BRANCH   9  10
ATOM     10  C   UNL     1     106.431  22.472  31.202  0.00  0.00    +0.055 C 
ATOM     11  N   UNL     1     107.648  22.403  30.769  0.00  0.00    -0.186 NA
BRANCH  11  12
ATOM     12  N   UNL     1     107.922  21.354  29.934  0.00  0.00    -0.191 N 
ATOM     13  C   UNL     1     108.531  21.543  28.712  0.00  0.00    +0.317 C 
ATOM     14  O   UNL     1     108.813  20.627  27.965  0.00  0.00    -0.251 OA
ATOM     15  N   UNL     1     108.772  22.840  28.421  0.00  0.00    -0.312 N 
ATOM     16  H   UNL     1     107.679  20.442  30.214  0.00  0.00    +0.000 HD
ATOM     17  H   UNL     1     108.524  23.543  29.064  0.00  0.00    +0.000 HD
ATOM     18  H   UNL     1     109.197  23.082  27.566  0.00  0.00    +0.000 HD
ENDBRANCH  11  12
ENDBRANCH   9  10
BRANCH   7  19
ATOM     19  C   UNL     1     104.341  26.728  32.719  0.00  0.00    +0.048 C 
BRANCH  19  20
ATOM     20  C   UNL     1     102.843  26.548  32.729  0.00  0.00    -0.028 A 
ATOM     21  C   UNL     1     102.123  26.568  31.526  0.00  0.00    -0.055 A 
ATOM     22  C   UNL     1     100.728  26.624  31.536  0.00  0.00    -0.043 A 
ATOM     23  C   UNL     1     100.045  26.619  32.749  0.00  0.00    +0.041 A 
ATOM     24  C   UNL     1     100.739  26.479  33.947  0.00  0.00    -0.043 A 
ATOM     25  C   UNL     1     102.136  26.441  33.938  0.00  0.00    -0.055 A 
ATOM     26 CL   UNL     1      98.339  26.846  32.766  0.00  0.00    -0.084 Cl
ENDBRANCH  19  20
ENDBRANCH   7  19
TORSDOF 4
