REMARK VINA RESULT:    -8.737      3.803      6.279
REMARK INTER + INTRA:         -12.188
REMARK INTER:                 -11.364
REMARK INTRA:                  -0.824
REMARK UNBOUND:                -0.387
REMARK  Name = 26a.sdf
REMARK  7 active torsions:
REMARK  status: ('A' for Active; 'I' for Inactive)
REMARK    1  A    between atoms: N_7  and  C_10
REMARK    2  A    between atoms: C_9  and  C_18
REMARK    3  A    between atoms: C_10  and  C_11
REMARK    4  A    between atoms: N_19  and  N_20
REMARK    5  A    between atoms: C_21  and  C_23
REMARK    6  A    between atoms: C_26  and  O_29
REMARK    7  A    between atoms: C_28  and  O_30
REMARK                            x       y       z     vdW  Elec       q    Type
REMARK                         _______ _______ _______ _____ _____    ______ ____
ROOT
ATOM      1  C   UNL     1     111.641  23.981  27.279  0.00  0.00    -0.061 A 
ATOM      2  C   UNL     1     112.094  22.843  26.623  0.00  0.00    -0.060 A 
ATOM      3  C   UNL     1     111.512  21.594  26.863  0.00  0.00    -0.038 A 
ATOM      4  C   UNL     1     110.449  21.518  27.780  0.00  0.00    +0.050 A 
ATOM      5  C   UNL     1     109.945  22.659  28.416  0.00  0.00    +0.009 A 
ATOM      6  C   UNL     1     110.565  23.905  28.168  0.00  0.00    -0.052 A 
ATOM      7  N   UNL     1     109.724  20.440  28.253  0.00  0.00    -0.342 N 
ATOM      8  C   UNL     1     108.735  20.881  29.094  0.00  0.00    +0.015 A 
ATOM      9  C   UNL     1     108.836  22.251  29.220  0.00  0.00    +0.020 A 
ENDROOT
BRANCH   9  10
ATOM     10  C   UNL     1     107.969  23.088  30.022  0.00  0.00    +0.055 C 
ATOM     11  N   UNL     1     106.766  22.696  30.287  0.00  0.00    -0.187 NA
BRANCH  11  12
ATOM     12  N   UNL     1     106.030  23.562  31.038  0.00  0.00    -0.203 N 
ATOM     13  C   UNL     1     104.816  24.044  30.585  0.00  0.00    +0.267 C 
ATOM     14  O   UNL     1     104.293  23.742  29.511  0.00  0.00    -0.268 OA
ATOM     15  H   UNL     1     106.367  23.850  31.916  0.00  0.00    +0.000 HD
BRANCH  13  16
ATOM     16  C   UNL     1     104.114  25.011  31.495  0.00  0.00    +0.080 A 
ATOM     17  C   UNL     1     104.682  25.233  32.762  0.00  0.00    -0.043 A 
ATOM     18  C   UNL     1     104.086  26.105  33.677  0.00  0.00    -0.019 A 
ATOM     19  C   UNL     1     102.914  26.763  33.322  0.00  0.00    +0.120 A 
ATOM     20  C   UNL     1     102.336  26.570  32.074  0.00  0.00    +0.022 A 
ATOM     21  C   UNL     1     102.933  25.694  31.161  0.00  0.00    +0.132 A 
BRANCH  19  22
ATOM     22  O   UNL     1     102.287  27.614  34.182  0.00  0.00    -0.507 OA
ATOM     23  H   UNL     1     102.770  28.304  34.595  0.00  0.00    +0.000 HD
ENDBRANCH  19  22
BRANCH  21  24
ATOM     24  O   UNL     1     102.333  25.519  29.939  0.00  0.00    -0.506 OA
ATOM     25  H   UNL     1     102.477  26.141  29.253  0.00  0.00    +0.000 HD
ENDBRANCH  21  24
ENDBRANCH  13  16
ENDBRANCH  11  12
ENDBRANCH   9  10
BRANCH   7  26
ATOM     26  C   UNL     1     110.011  19.027  28.015  0.00  0.00    +0.048 C 
BRANCH  26  27
ATOM     27  C   UNL     1     111.116  18.523  28.909  0.00  0.00    -0.028 A 
ATOM     28  C   UNL     1     111.485  17.170  28.891  0.00  0.00    -0.056 A 
ATOM     29  C   UNL     1     112.425  16.678  29.797  0.00  0.00    -0.047 A 
ATOM     30  C   UNL     1     113.012  17.540  30.719  0.00  0.00    +0.018 A 
ATOM     31  C   UNL     1     112.699  18.897  30.716  0.00  0.00    -0.047 A 
ATOM     32  C   UNL     1     111.754  19.387  29.812  0.00  0.00    -0.056 A 
ATOM     33 BR   UNL     1     114.214  16.855  32.007  0.00  0.00    -0.050 Br
ENDBRANCH  26  27
ENDBRANCH   7  26
TORSDOF 7
