REMARK VINA RESULT:    -9.430      2.618      3.467
REMARK INTER + INTRA:         -12.733
REMARK INTER:                 -11.867
REMARK INTRA:                  -0.865
REMARK UNBOUND:                -0.547
REMARK  Name = 8a.sdf
REMARK  5 active torsions:
REMARK  status: ('A' for Active; 'I' for Inactive)
REMARK    1  A    between atoms: N_7  and  C_12
REMARK    2  A    between atoms: C_9  and  C_10
REMARK    3  A    between atoms: N_11  and  N_20
REMARK    4  A    between atoms: C_12  and  C_13
REMARK    5  A    between atoms: C_21  and  C_23
REMARK                            x       y       z     vdW  Elec       q    Type
REMARK                         _______ _______ _______ _____ _____    ______ ____
ROOT
ATOM      1  C   UNL     1     109.678  21.811  35.477  0.00  0.00    -0.061 A 
ATOM      2  C   UNL     1     110.859  21.684  34.755  0.00  0.00    -0.060 A 
ATOM      3  C   UNL     1     110.940  22.114  33.427  0.00  0.00    -0.038 A 
ATOM      4  C   UNL     1     109.801  22.690  32.840  0.00  0.00    +0.050 A 
ATOM      5  C   UNL     1     108.614  22.869  33.563  0.00  0.00    +0.009 A 
ATOM      6  C   UNL     1     108.556  22.407  34.897  0.00  0.00    -0.052 A 
ATOM      7  N   UNL     1     109.567  23.156  31.560  0.00  0.00    -0.342 N 
ATOM      8  C   UNL     1     108.304  23.691  31.484  0.00  0.00    +0.015 A 
ATOM      9  C   UNL     1     107.683  23.539  32.708  0.00  0.00    +0.020 A 
ENDROOT
BRANCH   9  10
ATOM     10  C   UNL     1     106.350  23.983  33.045  0.00  0.00    +0.055 C 
ATOM     11  N   UNL     1     105.660  24.667  32.189  0.00  0.00    -0.187 NA
BRANCH  11  12
ATOM     12  N   UNL     1     104.413  25.051  32.595  0.00  0.00    -0.203 N 
ATOM     13  C   UNL     1     103.644  25.857  31.766  0.00  0.00    +0.263 C 
ATOM     14  O   UNL     1     103.978  26.264  30.662  0.00  0.00    -0.268 OA
ATOM     15  H   UNL     1     104.064  24.760  33.467  0.00  0.00    +0.000 HD
BRANCH  13  16
ATOM     16  C   UNL     1     102.288  26.203  32.286  0.00  0.00    +0.038 A 
ATOM     17  C   UNL     1     101.962  26.143  33.647  0.00  0.00    -0.049 A 
ATOM     18  C   UNL     1     100.674  26.478  34.075  0.00  0.00    -0.047 A 
ATOM     19  C   UNL     1      99.716  26.884  33.144  0.00  0.00    +0.018 A 
ATOM     20  C   UNL     1     100.034  26.970  31.792  0.00  0.00    -0.047 A 
ATOM     21  C   UNL     1     101.323  26.636  31.364  0.00  0.00    -0.049 A 
ATOM     22 BR   UNL     1      97.975  27.332  33.728  0.00  0.00    -0.050 Br
ENDBRANCH  13  16
ENDBRANCH  11  12
ENDBRANCH   9  10
BRANCH   7  23
ATOM     23  C   UNL     1     110.461  23.017  30.412  0.00  0.00    +0.048 C 
BRANCH  23  24
ATOM     24  C   UNL     1     110.469  21.607  29.876  0.00  0.00    -0.028 A 
ATOM     25  C   UNL     1     111.482  20.709  30.243  0.00  0.00    -0.056 A 
ATOM     26  C   UNL     1     111.550  19.441  29.664  0.00  0.00    -0.047 A 
ATOM     27  C   UNL     1     110.597  19.057  28.724  0.00  0.00    +0.018 A 
ATOM     28  C   UNL     1     109.554  19.916  28.387  0.00  0.00    -0.047 A 
ATOM     29  C   UNL     1     109.490  21.187  28.962  0.00  0.00    -0.056 A 
ATOM     30 BR   UNL     1     110.740  17.374  27.878  0.00  0.00    -0.050 Br
ENDBRANCH  23  24
ENDBRANCH   7  23
TORSDOF 5
