MODEL 1
REMARK VINA RESULT:    -6.738      0.000      0.000
REMARK INTER + INTRA:          -8.046
REMARK INTER:                  -7.526
REMARK INTRA:                  -0.520
REMARK UNBOUND:                -0.520
REMARK  Name = 0a.sdf
REMARK  2 active torsions:
REMARK  status: ('A' for Active; 'I' for Inactive)
REMARK    1  A    between atoms: N_7  and  C_10
REMARK    2  A    between atoms: C_10  and  C_11
REMARK                            x       y       z     vdW  Elec       q    Type
REMARK                         _______ _______ _______ _____ _____    ______ ____
ROOT
ATOM      1  C   UNL     1       0.462 -16.452  50.729  0.00  0.00    -0.061 A 
ATOM      2  C   UNL     1       1.348 -17.488  51.002  0.00  0.00    -0.060 A 
ATOM      3  C   UNL     1       1.035 -18.810  50.656  0.00  0.00    -0.038 A 
ATOM      4  C   UNL     1      -0.190 -19.066  50.021  0.00  0.00    +0.049 A 
ATOM      5  C   UNL     1      -1.075 -18.025  49.707  0.00  0.00    -0.000 A 
ATOM      6  C   UNL     1      -0.743 -16.705  50.071  0.00  0.00    -0.053 A 
ATOM      7  N   UNL     1      -0.803 -20.243  49.617  0.00  0.00    -0.342 N 
ATOM      8  C   UNL     1      -1.990 -19.958  48.984  0.00  0.00    +0.006 A 
ATOM      9  C   UNL     1      -2.185 -18.596  49.031  0.00  0.00    -0.036 A 
ENDROOT
BRANCH   7  10
ATOM     10  C   UNL     1      -0.369 -21.605  49.929  0.00  0.00    +0.048 C 
BRANCH  10  11
ATOM     11  C   UNL     1       0.442 -22.209  48.812  0.00  0.00    -0.028 A 
ATOM     12  C   UNL     1       1.794 -21.873  48.657  0.00  0.00    -0.056 A 
ATOM     13  C   UNL     1       2.515 -22.315  47.547  0.00  0.00    -0.047 A 
ATOM     14  C   UNL     1       1.891 -23.113  46.593  0.00  0.00    +0.018 A 
ATOM     15  C   UNL     1       0.571 -23.521  46.766  0.00  0.00    -0.047 A 
ATOM     16  C   UNL     1      -0.151 -23.073  47.876  0.00  0.00    -0.056 A 
ATOM     17 BR   UNL     1       2.829 -23.606  45.027  0.00  0.00    -0.050 Br
ENDBRANCH  10  11
ENDBRANCH   7  10
TORSDOF 2
ENDMDL
