MODEL 1
REMARK VINA RESULT:    -7.101      0.000      0.000
REMARK INTER + INTRA:          -7.750
REMARK INTER:                  -7.516
REMARK INTRA:                  -0.234
REMARK UNBOUND:                -0.234
REMARK  Name = 0d.sdf
REMARK  1 active torsions:
REMARK  status: ('A' for Active; 'I' for Inactive)
REMARK    1  A    between atoms: C_10  and  C_11
REMARK                            x       y       z     vdW  Elec       q    Type
REMARK                         _______ _______ _______ _____ _____    ______ ____
ROOT
ATOM      1  C   UNL     1       0.122 -21.143  50.444  0.00  0.00    -0.061 A 
ATOM      2  C   UNL     1      -0.316 -22.063  49.498  0.00  0.00    -0.060 A 
ATOM      3  C   UNL     1      -1.015 -21.648  48.359  0.00  0.00    -0.037 A 
ATOM      4  C   UNL     1      -1.268 -20.274  48.190  0.00  0.00    +0.057 A 
ATOM      5  C   UNL     1      -0.822 -19.337  49.131  0.00  0.00    +0.000 A 
ATOM      6  C   UNL     1      -0.124 -19.780  50.271  0.00  0.00    -0.053 A 
ATOM      7  N   UNL     1      -1.885 -19.574  47.151  0.00  0.00    -0.283 N 
ATOM      8  C   UNL     1      -1.866 -18.225  47.481  0.00  0.00    +0.014 A 
ATOM      9  C   UNL     1      -1.209 -18.055  48.674  0.00  0.00    -0.036 A 
ATOM     10  C   UNL     1      -2.428 -20.113  45.957  0.00  0.00    +0.263 C 
ATOM     11  O   UNL     1      -2.793 -21.286  45.959  0.00  0.00    -0.267 OA
ENDROOT
BRANCH  10  12
ATOM     12  C   UNL     1      -2.573 -19.317  44.707  0.00  0.00    +0.040 A 
ATOM     13  C   UNL     1      -1.483 -19.158  43.842  0.00  0.00    -0.049 A 
ATOM     14  C   UNL     1      -1.606 -18.370  42.698  0.00  0.00    -0.061 A 
ATOM     15  C   UNL     1      -2.828 -17.767  42.400  0.00  0.00    -0.062 A 
ATOM     16  C   UNL     1      -3.931 -17.970  43.231  0.00  0.00    -0.061 A 
ATOM     17  C   UNL     1      -3.809 -18.753  44.382  0.00  0.00    -0.049 A 
ENDBRANCH  10  12
TORSDOF 1
ENDMDL
