MODEL 1
REMARK VINA RESULT:    -6.029      0.000      0.000
REMARK INTER + INTRA:          -7.337
REMARK INTER:                  -7.086
REMARK INTRA:                  -0.251
REMARK UNBOUND:                -0.251
REMARK  Name = 14e.sdf
REMARK  5 active torsions:
REMARK  status: ('A' for Active; 'I' for Inactive)
REMARK    1  A    between atoms: C_9  and  C_10
REMARK    2  A    between atoms: C_10  and  O_11
REMARK    3  A    between atoms: O_11  and  C_12
REMARK    4  A    between atoms: C_12  and  C_13
REMARK    5  A    between atoms: C_15  and  C_16
REMARK                            x       y       z     vdW  Elec       q    Type
REMARK                         _______ _______ _______ _____ _____    ______ ____
ROOT
ATOM      1  C   UNL     1      -0.088 -23.055  47.902  0.00  0.00    -0.061 A 
ATOM      2  C   UNL     1       0.461 -22.438  49.017  0.00  0.00    -0.060 A 
ATOM      3  C   UNL     1       0.155 -21.108  49.322  0.00  0.00    -0.037 A 
ATOM      4  C   UNL     1      -0.718 -20.393  48.475  0.00  0.00    +0.057 A 
ATOM      5  C   UNL     1      -1.273 -21.004  47.346  0.00  0.00    +0.007 A 
ATOM      6  C   UNL     1      -0.957 -22.353  47.067  0.00  0.00    -0.052 A 
ATOM      7  N   UNL     1      -1.194 -19.075  48.542  0.00  0.00    -0.287 N 
ATOM      8  C   UNL     1      -2.026 -18.889  47.445  0.00  0.00    +0.020 A 
ATOM      9  C   UNL     1      -2.094 -20.043  46.690  0.00  0.00    +0.015 A 
ATOM     10  C   UNL     1      -0.876 -18.134  49.554  0.00  0.00    +0.229 C 
ATOM     11  C   UNL     1      -1.489 -16.766  49.471  0.00  0.00    +0.015 C 
ATOM     12  O   UNL     1      -0.118 -18.443  50.469  0.00  0.00    -0.273 OA
ENDROOT
BRANCH   9  13
ATOM     13  C   UNL     1      -2.891 -20.255  45.441  0.00  0.00    +0.119 C 
BRANCH  13  14
ATOM     14  O   UNL     1      -2.504 -19.328  44.413  0.00  0.00    -0.460 OA
BRANCH  14  15
ATOM     15  C   UNL     1      -3.514 -18.696  43.768  0.00  0.00    +0.304 C 
ATOM     16  C   UNL     1      -3.183 -18.493  42.320  0.00  0.00    +0.033 C 
ATOM     17  O   UNL     1      -4.572 -18.336  44.269  0.00  0.00    -0.251 OA
ENDBRANCH  14  15
ENDBRANCH  13  14
ENDBRANCH   9  13
TORSDOF 3
ENDMDL
