MODEL 1
REMARK VINA RESULT:    -7.306      0.000      0.000
REMARK INTER + INTRA:         -10.331
REMARK INTER:                  -9.442
REMARK INTRA:                  -0.889
REMARK UNBOUND:                -0.889
REMARK  Name = 17g.sdf
REMARK  6 active torsions:
REMARK  status: ('A' for Active; 'I' for Inactive)
REMARK    1  A    between atoms: N_7  and  C_16
REMARK    2  A    between atoms: C_9  and  C_10
REMARK    3  A    between atoms: N_11  and  N_12
REMARK    4  A    between atoms: C_16  and  C_17
REMARK    5  A    between atoms: C_20  and  O_23
REMARK    6  A    between atoms: O_23  and  C_24
REMARK                            x       y       z     vdW  Elec       q    Type
REMARK                         _______ _______ _______ _____ _____    ______ ____
ROOT
ATOM      1  C   UNL     1       0.623 -16.528  50.832  0.00  0.00    -0.061 A 
ATOM      2  C   UNL     1       1.408 -17.599  51.244  0.00  0.00    -0.060 A 
ATOM      3  C   UNL     1       1.127 -18.902  50.821  0.00  0.00    -0.038 A 
ATOM      4  C   UNL     1       0.033 -19.106  49.962  0.00  0.00    +0.050 A 
ATOM      5  C   UNL     1      -0.742 -18.036  49.497  0.00  0.00    +0.009 A 
ATOM      6  C   UNL     1      -0.445 -16.731  49.954  0.00  0.00    -0.052 A 
ATOM      7  N   UNL     1      -0.510 -20.259  49.427  0.00  0.00    -0.342 N 
ATOM      8  C   UNL     1      -1.545 -19.936  48.586  0.00  0.00    +0.015 A 
ATOM      9  C   UNL     1      -1.718 -18.565  48.598  0.00  0.00    +0.020 A 
ENDROOT
BRANCH   9  10
ATOM     10  C   UNL     1      -2.703 -17.830  47.834  0.00  0.00    +0.055 C 
ATOM     11  N   UNL     1      -2.738 -17.969  46.548  0.00  0.00    -0.186 NA
BRANCH  11  12
ATOM     12  N   UNL     1      -3.686 -17.222  45.904  0.00  0.00    -0.191 N 
ATOM     13  C   UNL     1      -4.422 -17.739  44.862  0.00  0.00    +0.317 C 
ATOM     14  O   UNL     1      -5.302 -17.113  44.290  0.00  0.00    -0.251 OA
ATOM     15  N   UNL     1      -4.078 -19.006  44.521  0.00  0.00    -0.312 N 
ATOM     16  H   UNL     1      -3.847 -16.294  46.193  0.00  0.00    +0.000 HD
ATOM     17  H   UNL     1      -3.362 -19.469  45.012  0.00  0.00    +0.000 HD
ATOM     18  H   UNL     1      -4.545 -19.461  43.784  0.00  0.00    +0.000 HD
ENDBRANCH  11  12
ENDBRANCH   9  10
BRANCH   7  19
ATOM     19  C   UNL     1      -0.149 -21.633  49.772  0.00  0.00    +0.048 C 
BRANCH  19  20
ATOM     20  C   UNL     1       0.565 -22.328  48.642  0.00  0.00    -0.028 A 
ATOM     21  C   UNL     1       1.885 -21.991  48.328  0.00  0.00    -0.053 A 
ATOM     22  C   UNL     1       2.503 -22.533  47.200  0.00  0.00    -0.020 A 
ATOM     23  C   UNL     1       1.828 -23.441  46.382  0.00  0.00    +0.120 A 
ATOM     24  C   UNL     1       0.537 -23.834  46.723  0.00  0.00    -0.020 A 
ATOM     25  C   UNL     1      -0.092 -23.279  47.846  0.00  0.00    -0.053 A 
BRANCH  23  26
ATOM     26  O   UNL     1       2.515 -23.804  45.258  0.00  0.00    -0.495 OA
ATOM     27  C   UNL     1       3.888 -23.446  45.187  0.00  0.00    +0.079 C 
ENDBRANCH  23  26
ENDBRANCH  19  20
ENDBRANCH   7  19
TORSDOF 5
ENDMDL
