MODEL 1
REMARK VINA RESULT:    -7.564      0.000      0.000
REMARK INTER + INTRA:         -10.274
REMARK INTER:                  -9.776
REMARK INTRA:                  -0.499
REMARK UNBOUND:                -0.499
REMARK  Name = 17i.sdf
REMARK  6 active torsions:
REMARK  status: ('A' for Active; 'I' for Inactive)
REMARK    1  A    between atoms: N_7  and  C_16
REMARK    2  A    between atoms: C_9  and  C_10
REMARK    3  A    between atoms: N_11  and  N_12
REMARK    4  A    between atoms: C_16  and  C_17
REMARK    5  A    between atoms: C_19  and  O_23
REMARK    6  A    between atoms: O_23  and  C_24
REMARK                            x       y       z     vdW  Elec       q    Type
REMARK                         _______ _______ _______ _____ _____    ______ ____
ROOT
ATOM      1  C   UNL     1      -1.853 -18.591  41.507  0.00  0.00    -0.061 A 
ATOM      2  C   UNL     1      -2.828 -17.603  41.417  0.00  0.00    -0.060 A 
ATOM      3  C   UNL     1      -3.407 -17.056  42.563  0.00  0.00    -0.038 A 
ATOM      4  C   UNL     1      -2.980 -17.530  43.815  0.00  0.00    +0.050 A 
ATOM      5  C   UNL     1      -1.967 -18.490  43.933  0.00  0.00    +0.009 A 
ATOM      6  C   UNL     1      -1.406 -19.032  42.757  0.00  0.00    -0.052 A 
ATOM      7  N   UNL     1      -3.411 -17.236  45.095  0.00  0.00    -0.342 N 
ATOM      8  C   UNL     1      -2.663 -17.940  46.006  0.00  0.00    +0.015 A 
ATOM      9  C   UNL     1      -1.732 -18.701  45.327  0.00  0.00    +0.020 A 
ENDROOT
BRANCH   9  10
ATOM     10  C   UNL     1      -0.734 -19.552  45.938  0.00  0.00    +0.055 C 
ATOM     11  N   UNL     1      -1.123 -20.503  46.722  0.00  0.00    -0.186 NA
BRANCH  11  12
ATOM     12  N   UNL     1      -0.118 -21.245  47.287  0.00  0.00    -0.191 N 
ATOM     13  C   UNL     1      -0.178 -22.615  47.327  0.00  0.00    +0.317 C 
ATOM     14  O   UNL     1       0.669 -23.307  47.882  0.00  0.00    -0.251 OA
ATOM     15  N   UNL     1      -1.254 -23.143  46.695  0.00  0.00    -0.312 N 
ATOM     16  H   UNL     1       0.663 -20.785  47.671  0.00  0.00    +0.000 HD
ATOM     17  H   UNL     1      -1.910 -22.550  46.263  0.00  0.00    +0.000 HD
ATOM     18  H   UNL     1      -1.379 -24.119  46.670  0.00  0.00    +0.000 HD
ENDBRANCH  11  12
ENDBRANCH   9  10
BRANCH   7  19
ATOM     19  C   UNL     1      -4.622 -16.497  45.442  0.00  0.00    +0.048 C 
BRANCH  19  20
ATOM     20  C   UNL     1      -4.631 -15.905  46.831  0.00  0.00    -0.024 A 
ATOM     21  C   UNL     1      -4.991 -16.677  47.952  0.00  0.00    -0.015 A 
ATOM     22  C   UNL     1      -5.213 -16.078  49.196  0.00  0.00    +0.120 A 
ATOM     23  C   UNL     1      -5.023 -14.703  49.335  0.00  0.00    -0.020 A 
ATOM     24  C   UNL     1      -4.627 -13.929  48.247  0.00  0.00    -0.058 A 
ATOM     25  C   UNL     1      -4.441 -14.524  47.000  0.00  0.00    -0.057 A 
BRANCH  22  26
ATOM     26  O   UNL     1      -5.648 -16.717  50.325  0.00  0.00    -0.495 OA
ATOM     27  C   UNL     1      -6.144 -15.901  51.378  0.00  0.00    +0.079 C 
ENDBRANCH  22  26
ENDBRANCH  19  20
ENDBRANCH   7  19
TORSDOF 5
ENDMDL
