MODEL 1
REMARK VINA RESULT:    -7.306      0.000      0.000
REMARK INTER + INTRA:         -10.749
REMARK INTER:                  -9.869
REMARK INTRA:                  -0.880
REMARK UNBOUND:                -0.880
REMARK  Name = 17j.sdf
REMARK  8 active torsions:
REMARK  status: ('A' for Active; 'I' for Inactive)
REMARK    1  A    between atoms: N_7  and  C_16
REMARK    2  A    between atoms: C_9  and  C_10
REMARK    3  A    between atoms: N_11  and  N_12
REMARK    4  A    between atoms: C_16  and  C_17
REMARK    5  A    between atoms: C_19  and  O_23
REMARK    6  A    between atoms: C_21  and  O_25
REMARK    7  A    between atoms: O_23  and  C_24
REMARK    8  A    between atoms: O_25  and  C_26
REMARK                            x       y       z     vdW  Elec       q    Type
REMARK                         _______ _______ _______ _____ _____    ______ ____
ROOT
ATOM      1  C   UNL     1      -1.700 -18.623  41.348  0.00  0.00    -0.061 A 
ATOM      2  C   UNL     1      -2.772 -17.743  41.256  0.00  0.00    -0.060 A 
ATOM      3  C   UNL     1      -3.453 -17.315  42.401  0.00  0.00    -0.038 A 
ATOM      4  C   UNL     1      -3.026 -17.803  43.647  0.00  0.00    +0.050 A 
ATOM      5  C   UNL     1      -1.921 -18.655  43.768  0.00  0.00    +0.009 A 
ATOM      6  C   UNL     1      -1.257 -19.076  42.594  0.00  0.00    -0.052 A 
ATOM      7  N   UNL     1      -3.518 -17.598  44.922  0.00  0.00    -0.342 N 
ATOM      8  C   UNL     1      -2.721 -18.237  45.837  0.00  0.00    +0.015 A 
ATOM      9  C   UNL     1      -1.713 -18.900  45.162  0.00  0.00    +0.020 A 
ENDROOT
BRANCH   9  10
ATOM     10  C   UNL     1      -0.657 -19.679  45.775  0.00  0.00    +0.055 C 
ATOM     11  N   UNL     1      -0.951 -20.485  46.743  0.00  0.00    -0.186 NA
BRANCH  11  12
ATOM     12  N   UNL     1       0.108 -21.170  47.277  0.00  0.00    -0.191 N 
ATOM     13  C   UNL     1       0.108 -22.539  47.364  0.00  0.00    +0.317 C 
ATOM     14  O   UNL     1       1.047 -23.182  47.817  0.00  0.00    -0.251 OA
ATOM     15  N   UNL     1      -1.023 -23.122  46.892  0.00  0.00    -0.312 N 
ATOM     16  H   UNL     1       0.888 -20.667  47.605  0.00  0.00    +0.000 HD
ATOM     17  H   UNL     1      -1.752 -22.565  46.537  0.00  0.00    +0.000 HD
ATOM     18  H   UNL     1      -1.113 -24.102  46.906  0.00  0.00    +0.000 HD
ENDBRANCH  11  12
ENDBRANCH   9  10
BRANCH   7  19
ATOM     19  C   UNL     1      -4.736 -16.865  45.272  0.00  0.00    +0.049 C 
BRANCH  19  20
ATOM     20  C   UNL     1      -4.567 -15.839  46.372  0.00  0.00    -0.021 A 
ATOM     21  C   UNL     1      -4.939 -16.073  47.704  0.00  0.00    -0.015 A 
ATOM     22  C   UNL     1      -4.843 -15.063  48.664  0.00  0.00    +0.124 A 
ATOM     23  C   UNL     1      -4.321 -13.817  48.310  0.00  0.00    +0.022 A 
ATOM     24  C   UNL     1      -3.900 -13.573  47.004  0.00  0.00    +0.124 A 
ATOM     25  C   UNL     1      -4.026 -14.583  46.045  0.00  0.00    -0.015 A 
BRANCH  22  26
ATOM     26  O   UNL     1      -5.236 -15.173  49.972  0.00  0.00    -0.495 OA
ATOM     27  C   UNL     1      -5.528 -16.485  50.440  0.00  0.00    +0.079 C 
ENDBRANCH  22  26
BRANCH  24  28
ATOM     28  O   UNL     1      -3.361 -12.404  46.540  0.00  0.00    -0.495 OA
ATOM     29  C   UNL     1      -3.779 -11.974  45.248  0.00  0.00    +0.079 C 
ENDBRANCH  24  28
ENDBRANCH  19  20
ENDBRANCH   7  19
TORSDOF 6
ENDMDL
