MODEL 1
REMARK VINA RESULT:    -8.324      0.000      0.000
REMARK INTER + INTRA:         -10.933
REMARK INTER:                 -10.271
REMARK INTRA:                  -0.662
REMARK UNBOUND:                -0.662
REMARK  Name = 18d.sdf
REMARK  4 active torsions:
REMARK  status: ('A' for Active; 'I' for Inactive)
REMARK    1  A    between atoms: C_9  and  C_10
REMARK    2  A    between atoms: N_11  and  N_12
REMARK    3  A    between atoms: C_13  and  C_15
REMARK    4  A    between atoms: C_16  and  C_17
REMARK                            x       y       z     vdW  Elec       q    Type
REMARK                         _______ _______ _______ _____ _____    ______ ____
ROOT
ATOM      1  C   UNL     1      -3.864 -17.565  43.165  0.00  0.00    -0.061 A 
ATOM      2  C   UNL     1      -2.832 -18.461  42.918  0.00  0.00    -0.060 A 
ATOM      3  C   UNL     1      -1.982 -18.878  43.947  0.00  0.00    -0.037 A 
ATOM      4  C   UNL     1      -2.182 -18.358  45.240  0.00  0.00    +0.057 A 
ATOM      5  C   UNL     1      -3.231 -17.465  45.515  0.00  0.00    +0.009 A 
ATOM      6  C   UNL     1      -4.075 -17.066  44.455  0.00  0.00    -0.052 A 
ATOM      7  N   UNL     1      -1.504 -18.600  46.436  0.00  0.00    -0.282 N 
ATOM      8  C   UNL     1      -2.106 -17.836  47.420  0.00  0.00    +0.023 A 
ATOM      9  C   UNL     1      -3.181 -17.142  46.905  0.00  0.00    +0.020 A 
ATOM     10  C   UNL     1      -0.390 -19.453  46.645  0.00  0.00    +0.263 C 
ATOM     11  O   UNL     1       0.414 -19.597  45.717  0.00  0.00    -0.267 OA
ENDROOT
BRANCH  10  12
ATOM     12  C   UNL     1      -0.124 -20.129  47.935  0.00  0.00    +0.040 A 
ATOM     13  C   UNL     1      -0.812 -21.302  48.275  0.00  0.00    -0.049 A 
ATOM     14  C   UNL     1      -0.687 -21.829  49.557  0.00  0.00    -0.061 A 
ATOM     15  C   UNL     1       0.161 -21.220  50.479  0.00  0.00    -0.062 A 
ATOM     16  C   UNL     1       0.916 -20.102  50.113  0.00  0.00    -0.061 A 
ATOM     17  C   UNL     1       0.782 -19.558  48.837  0.00  0.00    -0.049 A 
ENDBRANCH  10  12
BRANCH   9  18
ATOM     18  C   UNL     1      -4.046 -16.261  47.671  0.00  0.00    +0.055 C 
ATOM     19  N   UNL     1      -4.564 -16.693  48.775  0.00  0.00    -0.187 NA
BRANCH  19  20
ATOM     20  N   UNL     1      -5.379 -15.835  49.465  0.00  0.00    -0.203 N 
ATOM     21  C   UNL     1      -5.784 -16.166  50.752  0.00  0.00    +0.263 C 
ATOM     22  O   UNL     1      -5.471 -17.194  51.353  0.00  0.00    -0.268 OA
ATOM     23  H   UNL     1      -5.672 -14.991  49.051  0.00  0.00    +0.000 HD
BRANCH  21  24
ATOM     24  C   UNL     1      -6.638 -15.160  51.446  0.00  0.00    +0.038 A 
ATOM     25  C   UNL     1      -6.533 -13.788  51.182  0.00  0.00    -0.050 A 
ATOM     26  C   UNL     1      -7.339 -12.880  51.875  0.00  0.00    -0.061 A 
ATOM     27  C   UNL     1      -8.259 -13.337  52.820  0.00  0.00    -0.062 A 
ATOM     28  C   UNL     1      -8.394 -14.704  53.059  0.00  0.00    -0.061 A 
ATOM     29  C   UNL     1      -7.589 -15.614  52.372  0.00  0.00    -0.050 A 
ENDBRANCH  21  24
ENDBRANCH  19  20
ENDBRANCH   9  18
TORSDOF 4
ENDMDL
