MODEL 1
REMARK VINA RESULT:    -6.705      0.000      0.000
REMARK INTER + INTRA:          -8.494
REMARK INTER:                  -7.881
REMARK INTRA:                  -0.613
REMARK UNBOUND:                -0.613
REMARK  Name = 1a.sdf
REMARK  3 active torsions:
REMARK  status: ('A' for Active; 'I' for Inactive)
REMARK    1  A    between atoms: N_7  and  C_12
REMARK    2  A    between atoms: C_9  and  C_10
REMARK    3  A    between atoms: C_12  and  C_13
REMARK                            x       y       z     vdW  Elec       q    Type
REMARK                         _______ _______ _______ _____ _____    ______ ____
ROOT
ATOM      1  C   UNL     1       0.671 -16.343  50.878  0.00  0.00    -0.061 A 
ATOM      2  C   UNL     1       1.476 -17.436  51.179  0.00  0.00    -0.060 A 
ATOM      3  C   UNL     1       1.092 -18.732  50.818  0.00  0.00    -0.038 A 
ATOM      4  C   UNL     1      -0.124 -18.903  50.135  0.00  0.00    +0.050 A 
ATOM      5  C   UNL     1      -0.930 -17.812  49.784  0.00  0.00    +0.010 A 
ATOM      6  C   UNL     1      -0.525 -16.516  50.176  0.00  0.00    -0.052 A 
ATOM      7  N   UNL     1      -0.775 -20.043  49.697  0.00  0.00    -0.342 N 
ATOM      8  C   UNL     1      -1.920 -19.693  49.023  0.00  0.00    +0.016 A 
ATOM      9  C   UNL     1      -2.051 -18.321  49.059  0.00  0.00    +0.039 A 
ENDROOT
BRANCH   9  10
ATOM     10  C   UNL     1      -3.139 -17.570  48.462  0.00  0.00    +0.152 C 
ATOM     11  O   UNL     1      -3.153 -17.186  47.296  0.00  0.00    -0.296 OA
ENDBRANCH   9  10
BRANCH   7  12
ATOM     12  C   UNL     1      -0.399 -21.424  49.991  0.00  0.00    +0.048 C 
BRANCH  12  13
ATOM     13  C   UNL     1       0.396 -22.039  48.867  0.00  0.00    -0.028 A 
ATOM     14  C   UNL     1       1.728 -21.656  48.645  0.00  0.00    -0.056 A 
ATOM     15  C   UNL     1       2.432 -22.144  47.544  0.00  0.00    -0.047 A 
ATOM     16  C   UNL     1       1.813 -23.029  46.664  0.00  0.00    +0.018 A 
ATOM     17  C   UNL     1       0.509 -23.460  46.896  0.00  0.00    -0.047 A 
ATOM     18  C   UNL     1      -0.196 -22.967  47.998  0.00  0.00    -0.056 A 
ATOM     19 BR   UNL     1       2.739 -23.621  45.126  0.00  0.00    -0.050 Br
ENDBRANCH  12  13
ENDBRANCH   7  12
TORSDOF 3
ENDMDL
