MODEL 1
REMARK VINA RESULT:    -6.261      0.000      0.000
REMARK INTER + INTRA:          -7.806
REMARK INTER:                  -7.360
REMARK INTRA:                  -0.446
REMARK UNBOUND:                -0.446
REMARK  Name = 1b.sdf
REMARK  3 active torsions:
REMARK  status: ('A' for Active; 'I' for Inactive)
REMARK    1  A    between atoms: N_7  and  C_12
REMARK    2  A    between atoms: C_9  and  C_10
REMARK    3  A    between atoms: C_12  and  C_13
REMARK                            x       y       z     vdW  Elec       q    Type
REMARK                         _______ _______ _______ _____ _____    ______ ____
ROOT
ATOM      1  C   UNL     1       0.095 -21.934  49.744  0.00  0.00    -0.061 A 
ATOM      2  C   UNL     1      -0.111 -22.638  48.564  0.00  0.00    -0.060 A 
ATOM      3  C   UNL     1      -0.831 -22.074  47.506  0.00  0.00    -0.038 A 
ATOM      4  C   UNL     1      -1.339 -20.773  47.661  0.00  0.00    +0.050 A 
ATOM      5  C   UNL     1      -1.107 -20.031  48.827  0.00  0.00    +0.010 A 
ATOM      6  C   UNL     1      -0.389 -20.630  49.883  0.00  0.00    -0.052 A 
ATOM      7  N   UNL     1      -2.116 -19.986  46.830  0.00  0.00    -0.342 N 
ATOM      8  C   UNL     1      -2.316 -18.758  47.407  0.00  0.00    +0.016 A 
ATOM      9  C   UNL     1      -1.707 -18.746  48.645  0.00  0.00    +0.039 A 
ENDROOT
BRANCH   9  10
ATOM     10  C   UNL     1      -1.707 -17.627  49.566  0.00  0.00    +0.152 C 
ATOM     11  O   UNL     1      -0.727 -16.917  49.781  0.00  0.00    -0.296 OA
ENDBRANCH   9  10
BRANCH   7  12
ATOM     12  C   UNL     1      -2.760 -20.409  45.588  0.00  0.00    +0.048 C 
BRANCH  12  13
ATOM     13  C   UNL     1      -2.737 -19.330  44.541  0.00  0.00    -0.025 A 
ATOM     14  C   UNL     1      -3.905 -18.645  44.193  0.00  0.00    -0.039 A 
ATOM     15  C   UNL     1      -3.845 -17.689  43.192  0.00  0.00    +0.028 A 
ATOM     16  N   UNL     1      -2.715 -17.362  42.532  0.00  0.00    -0.263 NA
ATOM     17  C   UNL     1      -1.593 -18.022  42.888  0.00  0.00    +0.028 A 
ATOM     18  C   UNL     1      -1.553 -18.997  43.874  0.00  0.00    -0.039 A 
ENDBRANCH  12  13
ENDBRANCH   7  12
TORSDOF 3
ENDMDL
