MODEL 1
REMARK VINA RESULT:    -5.983      0.000      0.000
REMARK INTER + INTRA:          -9.483
REMARK INTER:                  -7.382
REMARK INTRA:                  -2.101
REMARK UNBOUND:                -2.101
REMARK  Name = 20.sdf
REMARK  4 active torsions:
REMARK  status: ('A' for Active; 'I' for Inactive)
REMARK    1  A    between atoms: C_9  and  C_10
REMARK    2  A    between atoms: C_10  and  O_11
REMARK    3  A    between atoms: O_11  and  C_12
REMARK    4  A    between atoms: N_13  and  C_15
REMARK                            x       y       z     vdW  Elec       q    Type
REMARK                         _______ _______ _______ _____ _____    ______ ____
ROOT
ATOM      1  C   UNL     1      -0.450 -22.030  49.599  0.00  0.00    +0.121 C 
ENDROOT
BRANCH   1  10
ATOM      2  C   UNL     1       1.437 -17.933  50.939  0.00  0.00    -0.061 A 
ATOM      3  C   UNL     1       0.629 -16.843  50.625  0.00  0.00    -0.060 A 
ATOM      4  C   UNL     1      -0.606 -17.024  49.996  0.00  0.00    -0.038 A 
ATOM      5  C   UNL     1      -0.991 -18.335  49.683  0.00  0.00    +0.047 A 
ATOM      6  C   UNL     1      -0.200 -19.447  49.974  0.00  0.00    +0.006 A 
ATOM      7  C   UNL     1       1.036 -19.236  50.620  0.00  0.00    -0.052 A 
ATOM      8  N   UNL     1      -2.132 -18.797  49.072  0.00  0.00    -0.360 N 
ATOM      9  C   UNL     1      -2.091 -20.159  48.962  0.00  0.00    +0.009 A 
ATOM     10  C   UNL     1      -0.901 -20.607  49.506  0.00  0.00    +0.015 A 
ATOM     11  H   UNL     1      -2.872 -18.229  48.758  0.00  0.00    +0.000 HD
ENDBRANCH   1  10
BRANCH   1  12
ATOM     12  O   UNL     1       0.727 -22.258  48.807  0.00  0.00    -0.445 OA
BRANCH  12  13
ATOM     13  C   UNL     1       0.536 -22.650  47.529  0.00  0.00    +0.405 C 
ATOM     14  N   UNL     1       0.776 -21.698  46.571  0.00  0.00    -0.251 N 
ATOM     15  O   UNL     1       0.135 -23.761  47.192  0.00  0.00    -0.226 OA
ATOM     16  H   UNL     1       0.691 -22.031  45.648  0.00  0.00    +0.000 HD
BRANCH  14  17
ATOM     17  C   UNL     1       1.121 -20.336  46.658  0.00  0.00    +0.036 A 
ATOM     18  C   UNL     1       2.310 -19.846  47.199  0.00  0.00    -0.040 A 
ATOM     19  C   UNL     1       2.521 -18.467  47.325  0.00  0.00    -0.060 A 
ATOM     20  C   UNL     1       1.551 -17.565  46.897  0.00  0.00    -0.062 A 
ATOM     21  C   UNL     1       0.381 -18.039  46.314  0.00  0.00    -0.060 A 
ATOM     22  C   UNL     1       0.172 -19.416  46.189  0.00  0.00    -0.040 A 
ENDBRANCH  14  17
ENDBRANCH  12  13
ENDBRANCH   1  12
TORSDOF 4
ENDMDL
