MODEL 1
REMARK VINA RESULT:    -6.869      0.000      0.000
REMARK INTER + INTRA:          -9.712
REMARK INTER:                  -8.877
REMARK INTRA:                  -0.835
REMARK UNBOUND:                -0.835
REMARK  Name = 21.sdf
REMARK  5 active torsions:
REMARK  status: ('A' for Active; 'I' for Inactive)
REMARK    1  A    between atoms: C_9  and  C_10
REMARK    2  A    between atoms: C_10  and  O_11
REMARK    3  A    between atoms: O_11  and  C_12
REMARK    4  A    between atoms: C_12  and  C_13
REMARK    5  A    between atoms: C_13  and  C_14
REMARK                            x       y       z     vdW  Elec       q    Type
REMARK                         _______ _______ _______ _____ _____    ______ ____
ROOT
ATOM      1  C   UNL     1      -1.332 -16.036  46.099  0.00  0.00    +0.075 C 
ENDROOT
BRANCH   1  10
ATOM      2  C   UNL     1      -1.329 -19.044  42.455  0.00  0.00    -0.061 A 
ATOM      3  C   UNL     1      -2.180 -18.643  41.429  0.00  0.00    -0.060 A 
ATOM      4  C   UNL     1      -2.987 -17.510  41.575  0.00  0.00    -0.038 A 
ATOM      5  C   UNL     1      -2.881 -16.777  42.763  0.00  0.00    +0.047 A 
ATOM      6  C   UNL     1      -2.014 -17.132  43.799  0.00  0.00    +0.005 A 
ATOM      7  C   UNL     1      -1.252 -18.309  43.647  0.00  0.00    -0.052 A 
ATOM      8  N   UNL     1      -3.544 -15.644  43.170  0.00  0.00    -0.360 N 
ATOM      9  C   UNL     1      -3.099 -15.248  44.401  0.00  0.00    +0.008 A 
ATOM     10  C   UNL     1      -2.118 -16.129  44.823  0.00  0.00    +0.003 A 
ATOM     11  H   UNL     1      -4.240 -15.182  42.651  0.00  0.00    +0.000 HD
ENDBRANCH   1  10
BRANCH   1  12
ATOM     12  O   UNL     1      -2.200 -16.101  47.239  0.00  0.00    -0.367 OA
BRANCH  12  13
ATOM     13  C   UNL     1      -1.602 -16.741  48.355  0.00  0.00    +0.111 C 
BRANCH  13  14
ATOM     14  C   UNL     1      -2.397 -17.958  48.825  0.00  0.00    +0.189 C 
ATOM     15  O   UNL     1      -3.473 -17.829  49.421  0.00  0.00    -0.290 OA
BRANCH  14  16
ATOM     16  C   UNL     1      -1.926 -19.332  48.477  0.00  0.00    +0.020 A 
ATOM     17  C   UNL     1      -1.468 -20.232  49.445  0.00  0.00    -0.050 A 
ATOM     18  C   UNL     1      -0.961 -21.478  49.064  0.00  0.00    -0.047 A 
ATOM     19  C   UNL     1      -0.911 -21.825  47.715  0.00  0.00    +0.018 A 
ATOM     20  C   UNL     1      -1.387 -20.949  46.741  0.00  0.00    -0.047 A 
ATOM     21  C   UNL     1      -1.892 -19.705  47.123  0.00  0.00    -0.050 A 
ATOM     22 BR   UNL     1      -0.150 -23.476  47.199  0.00  0.00    -0.050 Br
ENDBRANCH  14  16
ENDBRANCH  13  14
ENDBRANCH  12  13
ENDBRANCH   1  12
TORSDOF 5
ENDMDL
