MODEL 1
REMARK VINA RESULT:    -8.080      0.000      0.000
REMARK INTER + INTRA:         -11.816
REMARK INTER:                 -10.914
REMARK INTRA:                  -0.902
REMARK UNBOUND:                -0.902
REMARK  Name = 22c.sdf
REMARK  7 active torsions:
REMARK  status: ('A' for Active; 'I' for Inactive)
REMARK    1  A    between atoms: N_7  and  C_12
REMARK    2  A    between atoms: C_9  and  C_10
REMARK    3  A    between atoms: N_11  and  N_19
REMARK    4  A    between atoms: C_12  and  C_13
REMARK    5  A    between atoms: C_20  and  C_22
REMARK    6  A    between atoms: C_25  and  O_29
REMARK    7  A    between atoms: O_29  and  C_30
REMARK                            x       y       z     vdW  Elec       q    Type
REMARK                         _______ _______ _______ _____ _____    ______ ____
ROOT
ATOM      1  C   UNL     1      -3.173 -17.776  41.558  0.00  0.00    -0.061 A 
ATOM      2  C   UNL     1      -2.160 -18.260  40.745  0.00  0.00    -0.060 A 
ATOM      3  C   UNL     1      -0.838 -18.351  41.207  0.00  0.00    -0.038 A 
ATOM      4  C   UNL     1      -0.557 -17.924  42.517  0.00  0.00    +0.050 A 
ATOM      5  C   UNL     1      -1.580 -17.494  43.375  0.00  0.00    +0.009 A 
ATOM      6  C   UNL     1      -2.901 -17.410  42.879  0.00  0.00    -0.052 A 
ATOM      7  N   UNL     1       0.632 -17.810  43.221  0.00  0.00    -0.342 N 
ATOM      8  C   UNL     1       0.365 -17.419  44.511  0.00  0.00    +0.015 A 
ATOM      9  C   UNL     1      -0.996 -17.235  44.654  0.00  0.00    +0.020 A 
ENDROOT
BRANCH   9  10
ATOM     10  C   UNL     1      -1.684 -16.847  45.869  0.00  0.00    +0.055 C 
ATOM     11  N   UNL     1      -2.583 -17.622  46.378  0.00  0.00    -0.187 NA
BRANCH  11  12
ATOM     12  N   UNL     1      -3.193 -17.172  47.523  0.00  0.00    -0.203 N 
ATOM     13  C   UNL     1      -4.285 -16.326  47.423  0.00  0.00    +0.263 C 
ATOM     14  O   UNL     1      -4.790 -15.941  46.366  0.00  0.00    -0.268 OA
ATOM     15  H   UNL     1      -2.856 -17.447  48.405  0.00  0.00    +0.000 HD
BRANCH  13  16
ATOM     16  C   UNL     1      -4.908 -15.893  48.711  0.00  0.00    +0.039 A 
ATOM     17  C   UNL     1      -5.299 -16.796  49.705  0.00  0.00    -0.046 A 
ATOM     18  C   UNL     1      -5.899 -16.323  50.880  0.00  0.00    -0.019 A 
ATOM     19  C   UNL     1      -6.089 -14.953  51.089  0.00  0.00    +0.120 A 
ATOM     20  C   UNL     1      -5.677 -14.050  50.113  0.00  0.00    -0.019 A 
ATOM     21  C   UNL     1      -5.085 -14.518  48.932  0.00  0.00    -0.046 A 
BRANCH  19  22
ATOM     22  O   UNL     1      -6.739 -14.627  52.247  0.00  0.00    -0.495 OA
ATOM     23  C   UNL     1      -7.777 -15.508  52.663  0.00  0.00    +0.079 C 
ENDBRANCH  19  22
ENDBRANCH  13  16
ENDBRANCH  11  12
ENDBRANCH   9  10
BRANCH   7  24
ATOM     24  C   UNL     1       1.993 -17.925  42.686  0.00  0.00    +0.048 C 
BRANCH  24  25
ATOM     25  C   UNL     1       2.457 -19.360  42.619  0.00  0.00    -0.028 A 
ATOM     26  C   UNL     1       2.404 -20.065  41.408  0.00  0.00    -0.055 A 
ATOM     27  C   UNL     1       2.651 -21.439  41.376  0.00  0.00    -0.043 A 
ATOM     28  C   UNL     1       2.985 -22.109  42.550  0.00  0.00    +0.041 A 
ATOM     29  C   UNL     1       3.144 -21.406  43.741  0.00  0.00    -0.043 A 
ATOM     30  C   UNL     1       2.883 -20.033  43.776  0.00  0.00    -0.055 A 
ATOM     31 CL   UNL     1       3.156 -23.821  42.535  0.00  0.00    -0.084 Cl
ENDBRANCH  24  25
ENDBRANCH   7  24
TORSDOF 6
ENDMDL
