MODEL 1
REMARK VINA RESULT:    -7.920      0.000      0.000
REMARK INTER + INTRA:         -11.357
REMARK INTER:                 -10.466
REMARK INTRA:                  -0.891
REMARK UNBOUND:                -0.891
REMARK  Name = 27a.sdf
REMARK  6 active torsions:
REMARK  status: ('A' for Active; 'I' for Inactive)
REMARK    1  A    between atoms: N_7  and  C_10
REMARK    2  A    between atoms: C_9  and  C_18
REMARK    3  A    between atoms: C_10  and  C_11
REMARK    4  A    between atoms: N_19  and  N_20
REMARK    5  A    between atoms: C_21  and  C_23
REMARK    6  A    between atoms: C_26  and  N_29
REMARK                            x       y       z     vdW  Elec       q    Type
REMARK                         _______ _______ _______ _____ _____    ______ ____
ROOT
ATOM      1  C   UNL     1      -2.864 -17.963  41.636  0.00  0.00    -0.061 A 
ATOM      2  C   UNL     1      -3.477 -16.743  41.887  0.00  0.00    -0.060 A 
ATOM      3  C   UNL     1      -3.225 -16.043  43.072  0.00  0.00    -0.038 A 
ATOM      4  C   UNL     1      -2.329 -16.598  44.001  0.00  0.00    +0.050 A 
ATOM      5  C   UNL     1      -1.664 -17.805  43.747  0.00  0.00    +0.009 A 
ATOM      6  C   UNL     1      -1.953 -18.499  42.551  0.00  0.00    -0.052 A 
ATOM      7  N   UNL     1      -1.925 -16.172  45.253  0.00  0.00    -0.342 N 
ATOM      8  C   UNL     1      -0.977 -17.031  45.750  0.00  0.00    +0.015 A 
ATOM      9  C   UNL     1      -0.779 -18.052  44.843  0.00  0.00    +0.020 A 
ENDROOT
BRANCH   9  10
ATOM     10  C   UNL     1       0.150 -19.155  44.986  0.00  0.00    +0.055 C 
ATOM     11  N   UNL     1       1.124 -19.292  44.147  0.00  0.00    -0.187 NA
BRANCH  11  12
ATOM     12  N   UNL     1       1.944 -20.366  44.350  0.00  0.00    -0.203 N 
ATOM     13  C   UNL     1       2.413 -21.081  43.254  0.00  0.00    +0.263 C 
ATOM     14  O   UNL     1       2.164 -20.825  42.078  0.00  0.00    -0.268 OA
ATOM     15  H   UNL     1       2.200 -20.631  45.263  0.00  0.00    +0.000 HD
BRANCH  13  16
ATOM     16  C   UNL     1       3.318 -22.225  43.572  0.00  0.00    +0.038 A 
ATOM     17  C   UNL     1       3.262 -22.923  44.785  0.00  0.00    -0.048 A 
ATOM     18  C   UNL     1       4.141 -23.989  45.021  0.00  0.00    -0.040 A 
ATOM     19  C   UNL     1       5.104 -24.352  44.074  0.00  0.00    +0.025 A 
ATOM     20  C   UNL     1       5.095 -23.710  42.835  0.00  0.00    -0.040 A 
ATOM     21  C   UNL     1       4.223 -22.643  42.589  0.00  0.00    -0.048 A 
BRANCH  19  22
ATOM     22  N   UNL     1       5.892 -25.490  44.271  0.00  0.00    -0.358 N 
ATOM     23  H   UNL     1       6.196 -26.018  43.498  0.00  0.00    +0.000 HD
ATOM     24  H   UNL     1       6.144 -25.762  45.183  0.00  0.00    +0.000 HD
ENDBRANCH  19  22
ENDBRANCH  13  16
ENDBRANCH  11  12
ENDBRANCH   9  10
BRANCH   7  25
ATOM     25  C   UNL     1      -2.486 -15.054  46.011  0.00  0.00    +0.048 C 
BRANCH  25  26
ATOM     26  C   UNL     1      -3.189 -15.521  47.260  0.00  0.00    -0.028 A 
ATOM     27  C   UNL     1      -4.458 -16.115  47.187  0.00  0.00    -0.056 A 
ATOM     28  C   UNL     1      -5.159 -16.440  48.350  0.00  0.00    -0.047 A 
ATOM     29  C   UNL     1      -4.588 -16.186  49.594  0.00  0.00    +0.018 A 
ATOM     30  C   UNL     1      -3.305 -15.651  49.687  0.00  0.00    -0.047 A 
ATOM     31  C   UNL     1      -2.607 -15.322  48.522  0.00  0.00    -0.056 A 
ATOM     32 BR   UNL     1      -5.577 -16.535  51.167  0.00  0.00    -0.050 Br
ENDBRANCH  25  26
ENDBRANCH   7  25
TORSDOF 6
ENDMDL
