MODEL 1
REMARK VINA RESULT:    -5.758      0.000      0.000
REMARK INTER + INTRA:          -7.169
REMARK INTER:                  -6.936
REMARK INTRA:                  -0.233
REMARK UNBOUND:                -0.233
REMARK  Name = 3.sdf
REMARK  4 active torsions:
REMARK  status: ('A' for Active; 'I' for Inactive)
REMARK    1  A    between atoms: CG_9  and  CB_10
REMARK    2  A    between atoms: CB_10  and  CA_11
REMARK    3  A    between atoms: CA_11  and  C_12
REMARK    4  A    between atoms: CA_11  and  N_15
REMARK                            x       y       z     vdW  Elec       q    Type
REMARK                         _______ _______ _______ _____ _____    ______ ____
ROOT
ATOM      1  CZ3 TRP A   1       0.117 -18.763  42.070  0.00  0.00    -0.061 A 
ATOM      2  CH2 TRP A   1      -0.688 -18.401  40.993  0.00  0.00    -0.060 A 
ATOM      3  CZ2 TRP A   1      -2.062 -18.212  41.157  0.00  0.00    -0.038 A 
ATOM      4  CE2 TRP A   1      -2.594 -18.385  42.441  0.00  0.00    +0.047 A 
ATOM      5  CD2 TRP A   1      -1.813 -18.719  43.548  0.00  0.00    +0.003 A 
ATOM      6  CE3 TRP A   1      -0.430 -18.923  43.351  0.00  0.00    -0.052 A 
ATOM      7  NE1 TRP A   1      -3.888 -18.270  42.881  0.00  0.00    -0.360 N 
ATOM      8  CD1 TRP A   1      -3.950 -18.467  44.232  0.00  0.00    +0.006 A 
ATOM      9  CG  TRP A   1      -2.678 -18.743  44.696  0.00  0.00    -0.020 A 
ATOM     10  HE1 TRP A   1      -4.663 -18.073  42.304  0.00  0.00    +0.000 HD
ENDROOT
BRANCH   9  11
ATOM     11  CB  TRP A   1      -2.258 -18.960  46.122  0.00  0.00    -0.000 C 
BRANCH  11  12
ATOM     12  CA  TRP A   1      -1.865 -20.399  46.483  0.00  0.00    +0.107 C 
BRANCH  12  13
ATOM     13  N   TRP A   1      -2.851 -21.377  45.950  0.00  0.00    -0.318 N 
ATOM     14  H1  TRP A   1      -2.429 -22.305  45.923  0.00  0.00    +0.000 HD
ATOM     15  H2  TRP A   1      -3.125 -21.102  45.005  0.00  0.00    +0.000 HD
ATOM     16  H3  TRP A   1      -3.673 -21.394  46.551  0.00  0.00    +0.000 HD
ENDBRANCH  12  13
BRANCH  12  17
ATOM     17  C   TRP A   1      -1.705 -20.606  47.997  0.00  0.00    +0.322 C 
ATOM     18  O   TRP A   1      -2.299 -19.648  48.752  0.00  0.00    -0.480 OA
ATOM     19  OXT TRP A   1      -1.183 -21.592  48.498  0.00  0.00    -0.249 OA
ENDBRANCH  12  17
ENDBRANCH  11  12
ENDBRANCH   9  11
TORSDOF 4
ENDMDL
