MODEL 1
REMARK VINA RESULT:    -7.036      0.000      0.000
REMARK INTER + INTRA:         -10.182
REMARK INTER:                  -9.299
REMARK INTRA:                  -0.883
REMARK UNBOUND:                -0.883
REMARK  Name = 3a.sdf
REMARK  6 active torsions:
REMARK  status: ('A' for Active; 'I' for Inactive)
REMARK    1  A    between atoms: N_7  and  C_12
REMARK    2  A    between atoms: C_9  and  C_10
REMARK    3  A    between atoms: C_10  and  CA_11
REMARK    4  A    between atoms: CA_11  and  C_20
REMARK    5  A    between atoms: CA_11  and  N_23
REMARK    6  A    between atoms: C_12  and  C_13
REMARK                            x       y       z     vdW  Elec       q    Type
REMARK                         _______ _______ _______ _____ _____    ______ ____
ROOT
ATOM      1  C   UNL     1       1.392 -18.184  50.968  0.00  0.00    -0.061 A 
ATOM      2  C   UNL     1       0.853 -16.911  50.821  0.00  0.00    -0.060 A 
ATOM      3  C   UNL     1      -0.315 -16.707  50.079  0.00  0.00    -0.038 A 
ATOM      4  C   UNL     1      -0.943 -17.823  49.501  0.00  0.00    +0.050 A 
ATOM      5  C   UNL     1      -0.438 -19.118  49.667  0.00  0.00    +0.003 A 
ATOM      6  C   UNL     1       0.756 -19.291  50.399  0.00  0.00    -0.052 A 
ATOM      7  N   UNL     1      -2.051 -17.932  48.685  0.00  0.00    -0.342 N 
ATOM      8  C   UNL     1      -2.353 -19.258  48.486  0.00  0.00    +0.009 A 
ATOM      9  C   UNL     1      -1.318 -20.021  48.986  0.00  0.00    -0.020 A 
ENDROOT
BRANCH   9  10
ATOM     10  C   UNL     1      -1.131 -21.502  48.848  0.00  0.00    -0.000 C 
BRANCH  10  11
ATOM     11  CA  UNL     1      -0.561 -21.982  47.500  0.00  0.00    +0.107 C 
BRANCH  11  12
ATOM     12  N   UNL     1      -1.638 -22.662  46.731  0.00  0.00    -0.318 N 
ATOM     13  H1  UNL     1      -2.505 -22.131  46.819  0.00  0.00    +0.000 HD
ATOM     14  H2  UNL     1      -1.777 -23.603  47.100  0.00  0.00    +0.000 HD
ATOM     15  H3  UNL     1      -1.371 -22.717  45.748  0.00  0.00    +0.000 HD
ENDBRANCH  11  12
BRANCH  11  16
ATOM     16  C   UNL     1       0.678 -22.896  47.677  0.00  0.00    +0.322 C 
ATOM     17  O   UNL     1       1.541 -22.458  48.626  0.00  0.00    -0.480 OA
ATOM     18  OXT UNL     1       0.880 -23.944  47.076  0.00  0.00    -0.249 OA
ENDBRANCH  11  16
ENDBRANCH  10  11
ENDBRANCH   9  10
BRANCH   7  19
ATOM     19  C   UNL     1      -2.724 -16.845  47.979  0.00  0.00    +0.048 C 
BRANCH  19  20
ATOM     20  C   UNL     1      -2.796 -17.104  46.496  0.00  0.00    -0.028 A 
ATOM     21  C   UNL     1      -1.620 -17.245  45.746  0.00  0.00    -0.056 A 
ATOM     22  C   UNL     1      -1.674 -17.356  44.357  0.00  0.00    -0.047 A 
ATOM     23  C   UNL     1      -2.908 -17.345  43.712  0.00  0.00    +0.018 A 
ATOM     24  C   UNL     1      -4.089 -17.269  44.445  0.00  0.00    -0.047 A 
ATOM     25  C   UNL     1      -4.034 -17.150  45.836  0.00  0.00    -0.056 A 
ATOM     26 BR   UNL     1      -2.976 -17.401  41.825  0.00  0.00    -0.050 Br
ENDBRANCH  19  20
ENDBRANCH   7  19
TORSDOF 6
ENDMDL
