MODEL 1
REMARK VINA RESULT:    -7.016      0.000      0.000
REMARK INTER + INTRA:          -8.364
REMARK INTER:                  -8.041
REMARK INTRA:                  -0.323
REMARK UNBOUND:                -0.323
REMARK  Name = 4d.sdf
REMARK  3 active torsions:
REMARK  status: ('A' for Active; 'I' for Inactive)
REMARK    1  A    between atoms: C_9  and  C_10
REMARK    2  A    between atoms: C_10  and  O_18
REMARK    3  A    between atoms: C_11  and  C_12
REMARK                            x       y       z     vdW  Elec       q    Type
REMARK                         _______ _______ _______ _____ _____    ______ ____
ROOT
ATOM      1  C   UNL     1       0.090 -21.107  50.489  0.00  0.00    -0.061 A 
ATOM      2  C   UNL     1      -0.312 -22.025  49.527  0.00  0.00    -0.060 A 
ATOM      3  C   UNL     1      -1.002 -21.612  48.384  0.00  0.00    -0.037 A 
ATOM      4  C   UNL     1      -1.289 -20.243  48.228  0.00  0.00    +0.057 A 
ATOM      5  C   UNL     1      -0.885 -19.303  49.185  0.00  0.00    +0.006 A 
ATOM      6  C   UNL     1      -0.189 -19.748  50.329  0.00  0.00    -0.052 A 
ATOM      7  N   UNL     1      -1.906 -19.551  47.185  0.00  0.00    -0.283 N 
ATOM      8  C   UNL     1      -1.940 -18.210  47.533  0.00  0.00    +0.019 A 
ATOM      9  C   UNL     1      -1.304 -18.015  48.738  0.00  0.00    +0.004 A 
ATOM     10  C   UNL     1      -2.405 -20.089  45.970  0.00  0.00    +0.263 C 
ATOM     11  O   UNL     1      -2.718 -21.275  45.940  0.00  0.00    -0.267 OA
ENDROOT
BRANCH  10  12
ATOM     12  C   UNL     1      -2.562 -19.273  44.737  0.00  0.00    +0.040 A 
ATOM     13  C   UNL     1      -1.461 -19.056  43.896  0.00  0.00    -0.049 A 
ATOM     14  C   UNL     1      -1.590 -18.238  42.775  0.00  0.00    -0.061 A 
ATOM     15  C   UNL     1      -2.823 -17.664  42.474  0.00  0.00    -0.062 A 
ATOM     16  C   UNL     1      -3.935 -17.928  43.277  0.00  0.00    -0.061 A 
ATOM     17  C   UNL     1      -3.811 -18.739  44.406  0.00  0.00    -0.049 A 
ENDBRANCH  10  12
BRANCH   9  18
ATOM     18  C   UNL     1      -1.103 -16.709  49.425  0.00  0.00    +0.071 C 
BRANCH  18  19
ATOM     19  O   UNL     1      -2.319 -16.229  49.986  0.00  0.00    -0.390 OA
ATOM     20  H   UNL     1      -2.789 -15.691  49.330  0.00  0.00    +0.000 HD
ENDBRANCH  18  19
ENDBRANCH   9  18
TORSDOF 3
ENDMDL
