MODEL 1
REMARK VINA RESULT:    -7.225      0.000      0.000
REMARK INTER + INTRA:         -10.169
REMARK INTER:                  -9.337
REMARK INTRA:                  -0.832
REMARK UNBOUND:                -0.832
REMARK  Name = 5a.sdf
REMARK  6 active torsions:
REMARK  status: ('A' for Active; 'I' for Inactive)
REMARK    1  A    between atoms: N_7  and  C_12
REMARK    2  A    between atoms: C_9  and  C_10
REMARK    3  A    between atoms: C_11  and  C_20
REMARK    4  A    between atoms: C_12  and  C_13
REMARK    5  A    between atoms: C_20  and  O_21
REMARK    6  A    between atoms: O_21  and  C_23
REMARK                            x       y       z     vdW  Elec       q    Type
REMARK                         _______ _______ _______ _____ _____    ______ ____
ROOT
ATOM      1  C   UNL     1       0.582 -16.234  50.837  0.00  0.00    -0.061 A 
ATOM      2  C   UNL     1       1.425 -17.295  51.156  0.00  0.00    -0.060 A 
ATOM      3  C   UNL     1       1.097 -18.612  50.795  0.00  0.00    -0.038 A 
ATOM      4  C   UNL     1      -0.121 -18.847  50.122  0.00  0.00    +0.050 A 
ATOM      5  C   UNL     1      -0.949 -17.779  49.738  0.00  0.00    +0.007 A 
ATOM      6  C   UNL     1      -0.587 -16.465  50.112  0.00  0.00    -0.052 A 
ATOM      7  N   UNL     1      -0.762 -20.010  49.723  0.00  0.00    -0.342 N 
ATOM      8  C   UNL     1      -1.909 -19.685  49.014  0.00  0.00    +0.013 A 
ATOM      9  C   UNL     1      -2.049 -18.312  48.995  0.00  0.00    +0.000 A 
ENDROOT
BRANCH   9  10
ATOM     10  C   UNL     1      -3.085 -17.530  48.362  0.00  0.00    -0.046 C 
ATOM     11  C   UNL     1      -3.103 -17.088  47.095  0.00  0.00    +0.023 C 
BRANCH  11  12
ATOM     12  C   UNL     1      -4.153 -16.253  46.438  0.00  0.00    +0.332 C 
ATOM     13  O   UNL     1      -4.934 -15.595  47.100  0.00  0.00    -0.246 OA
BRANCH  12  14
ATOM     14  O   UNL     1      -4.140 -16.322  45.081  0.00  0.00    -0.465 OA
ATOM     15  C   UNL     1      -4.669 -17.542  44.542  0.00  0.00    +0.082 C 
ENDBRANCH  12  14
ENDBRANCH  11  12
ENDBRANCH   9  10
BRANCH   7  16
ATOM     16  C   UNL     1      -0.412 -21.387  50.103  0.00  0.00    +0.048 C 
BRANCH  16  17
ATOM     17  C   UNL     1       0.376 -22.093  49.026  0.00  0.00    -0.028 A 
ATOM     18  C   UNL     1       1.758 -21.888  48.909  0.00  0.00    -0.056 A 
ATOM     19  C   UNL     1       2.451 -22.354  47.790  0.00  0.00    -0.047 A 
ATOM     20  C   UNL     1       1.772 -23.060  46.802  0.00  0.00    +0.018 A 
ATOM     21  C   UNL     1       0.425 -23.375  46.960  0.00  0.00    -0.047 A 
ATOM     22  C   UNL     1      -0.271 -22.896  48.072  0.00  0.00    -0.056 A 
ATOM     23 BR   UNL     1       2.664 -23.526  45.202  0.00  0.00    -0.050 Br
ENDBRANCH  16  17
ENDBRANCH   7  16
TORSDOF 5
ENDMDL
