MODEL 1
REMARK VINA RESULT:    -7.236      0.000      0.000
REMARK INTER + INTRA:         -10.211
REMARK INTER:                  -9.351
REMARK INTRA:                  -0.860
REMARK UNBOUND:                -0.860
REMARK  Name = 5c.sdf
REMARK  6 active torsions:
REMARK  status: ('A' for Active; 'I' for Inactive)
REMARK    1  A    between atoms: N_7  and  C_12
REMARK    2  A    between atoms: C_9  and  C_10
REMARK    3  A    between atoms: C_11  and  C_20
REMARK    4  A    between atoms: C_12  and  C_13
REMARK    5  A    between atoms: C_20  and  O_21
REMARK    6  A    between atoms: O_21  and  C_23
REMARK                            x       y       z     vdW  Elec       q    Type
REMARK                         _______ _______ _______ _____ _____    ______ ____
ROOT
ATOM      1  C   UNL     1       0.723 -16.522  50.793  0.00  0.00    -0.061 A 
ATOM      2  C   UNL     1       1.463 -17.636  51.171  0.00  0.00    -0.060 A 
ATOM      3  C   UNL     1       1.037 -18.927  50.843  0.00  0.00    -0.038 A 
ATOM      4  C   UNL     1      -0.157 -19.073  50.115  0.00  0.00    +0.050 A 
ATOM      5  C   UNL     1      -0.899 -17.963  49.689  0.00  0.00    +0.007 A 
ATOM      6  C   UNL     1      -0.450 -16.673  50.048  0.00  0.00    -0.052 A 
ATOM      7  N   UNL     1      -0.838 -20.199  49.687  0.00  0.00    -0.342 N 
ATOM      8  C   UNL     1      -1.948 -19.828  48.961  0.00  0.00    +0.013 A 
ATOM      9  C   UNL     1      -2.010 -18.451  48.933  0.00  0.00    +0.000 A 
ENDROOT
BRANCH   9  10
ATOM     10  C   UNL     1      -3.002 -17.654  48.271  0.00  0.00    -0.046 C 
ATOM     11  C   UNL     1      -2.991 -17.311  46.972  0.00  0.00    +0.023 C 
BRANCH  11  12
ATOM     12  C   UNL     1      -4.007 -16.476  46.298  0.00  0.00    +0.332 C 
ATOM     13  O   UNL     1      -4.790 -15.786  46.936  0.00  0.00    -0.246 OA
BRANCH  12  14
ATOM     14  O   UNL     1      -3.954 -16.570  44.948  0.00  0.00    -0.465 OA
ATOM     15  C   UNL     1      -4.656 -17.701  44.425  0.00  0.00    +0.082 C 
ENDBRANCH  12  14
ENDBRANCH  11  12
ENDBRANCH   9  10
BRANCH   7  16
ATOM     16  C   UNL     1      -0.496 -21.586  50.006  0.00  0.00    +0.048 C 
BRANCH  16  17
ATOM     17  C   UNL     1       0.301 -22.223  48.893  0.00  0.00    -0.028 A 
ATOM     18  C   UNL     1       1.676 -21.975  48.769  0.00  0.00    -0.055 A 
ATOM     19  C   UNL     1       2.381 -22.434  47.655  0.00  0.00    -0.043 A 
ATOM     20  C   UNL     1       1.720 -23.159  46.668  0.00  0.00    +0.041 A 
ATOM     21  C   UNL     1       0.370 -23.473  46.809  0.00  0.00    -0.043 A 
ATOM     22  C   UNL     1      -0.337 -23.010  47.920  0.00  0.00    -0.055 A 
ATOM     23 CL   UNL     1       2.567 -23.645  45.252  0.00  0.00    -0.084 Cl
ENDBRANCH  16  17
ENDBRANCH   7  16
TORSDOF 5
ENDMDL
