MODEL 1
REMARK VINA RESULT:    -5.861      0.000      0.000
REMARK INTER + INTRA:          -7.658
REMARK INTER:                  -7.403
REMARK INTRA:                  -0.256
REMARK UNBOUND:                -0.256
REMARK  Name = 6.sdf
REMARK  6 active torsions:
REMARK  status: ('A' for Active; 'I' for Inactive)
REMARK    1  A    between atoms: C_9  and  C_10
REMARK    2  A    between atoms: C_10  and  C_11
REMARK    3  A    between atoms: C_11  and  C_12
REMARK    4  A    between atoms: C_11  and  N_15
REMARK    5  A    between atoms: C_12  and  O_13
REMARK    6  A    between atoms: O_13  and  C_16
REMARK                            x       y       z     vdW  Elec       q    Type
REMARK                         _______ _______ _______ _____ _____    ______ ____
ROOT
ATOM      1  C   UNL     1       0.162 -18.764  42.106  0.00  0.00    -0.061 A 
ATOM      2  C   UNL     1      -0.641 -18.395  41.031  0.00  0.00    -0.060 A 
ATOM      3  C   UNL     1      -2.019 -18.226  41.194  0.00  0.00    -0.038 A 
ATOM      4  C   UNL     1      -2.552 -18.417  42.472  0.00  0.00    +0.047 A 
ATOM      5  C   UNL     1      -1.772 -18.764  43.578  0.00  0.00    +0.003 A 
ATOM      6  C   UNL     1      -0.387 -18.953  43.380  0.00  0.00    -0.052 A 
ATOM      7  N   UNL     1      -3.850 -18.310  42.909  0.00  0.00    -0.360 N 
ATOM      8  C   UNL     1      -3.917 -18.534  44.256  0.00  0.00    +0.006 A 
ATOM      9  C   UNL     1      -2.643 -18.812  44.718  0.00  0.00    -0.020 A 
ATOM     10  H   UNL     1      -4.622 -18.102  42.335  0.00  0.00    +0.000 HD
ENDROOT
BRANCH   9  11
ATOM     11  C   UNL     1      -2.257 -19.058  46.149  0.00  0.00    -0.000 C 
BRANCH  11  12
ATOM     12  C   UNL     1      -1.856 -20.507  46.460  0.00  0.00    +0.107 C 
BRANCH  12  13
ATOM     13  N   UNL     1      -2.895 -21.443  45.942  0.00  0.00    -0.318 N 
ATOM     14  H   UNL     1      -2.453 -22.150  45.356  0.00  0.00    +0.000 HD
ATOM     15  H   UNL     1      -3.577 -20.922  45.392  0.00  0.00    +0.000 HD
ATOM     16  H   UNL     1      -3.365 -21.896  46.726  0.00  0.00    +0.000 HD
ENDBRANCH  12  13
BRANCH  12  17
ATOM     17  C   UNL     1      -1.709 -20.683  47.978  0.00  0.00    +0.324 C 
ATOM     18  O   UNL     1      -2.033 -19.835  48.801  0.00  0.00    -0.249 OA
BRANCH  17  19
ATOM     19  O   UNL     1      -1.179 -21.904  48.262  0.00  0.00    -0.467 OA
ATOM     20  C   UNL     1      -0.106 -21.929  49.206  0.00  0.00    +0.082 C 
ENDBRANCH  17  19
ENDBRANCH  12  17
ENDBRANCH  11  12
ENDBRANCH   9  11
TORSDOF 5
ENDMDL
