MODEL 1
REMARK VINA RESULT:    -6.716      0.000      0.000
REMARK INTER + INTRA:          -9.653
REMARK INTER:                  -8.680
REMARK INTRA:                  -0.973
REMARK UNBOUND:                -0.973
REMARK  Name = 7a.sdf
REMARK  6 active torsions:
REMARK  status: ('A' for Active; 'I' for Inactive)
REMARK    1  A    between atoms: N_7  and  C_12
REMARK    2  A    between atoms: C_9  and  C_10
REMARK    3  A    between atoms: C_10  and  C_11
REMARK    4  A    between atoms: C_11  and  O_21
REMARK    5  A    between atoms: C_12  and  C_13
REMARK    6  A    between atoms: O_21  and  C_22
REMARK                            x       y       z     vdW  Elec       q    Type
REMARK                         _______ _______ _______ _____ _____    ______ ____
ROOT
ATOM      1  C   UNL     1       0.647 -16.475  50.894  0.00  0.00    -0.061 A 
ATOM      2  C   UNL     1       1.433 -17.579  51.208  0.00  0.00    -0.060 A 
ATOM      3  C   UNL     1       1.082 -18.865  50.770  0.00  0.00    -0.038 A 
ATOM      4  C   UNL     1      -0.105 -19.024  50.031  0.00  0.00    +0.050 A 
ATOM      5  C   UNL     1      -0.875 -17.913  49.654  0.00  0.00    +0.004 A 
ATOM      6  C   UNL     1      -0.489 -16.629  50.098  0.00  0.00    -0.052 A 
ATOM      7  N   UNL     1      -0.767 -20.147  49.554  0.00  0.00    -0.342 N 
ATOM      8  C   UNL     1      -1.852 -19.756  48.804  0.00  0.00    +0.010 A 
ATOM      9  C   UNL     1      -1.945 -18.379  48.827  0.00  0.00    -0.012 A 
ENDROOT
BRANCH   9  10
ATOM     10  C   UNL     1      -2.967 -17.551  48.110  0.00  0.00    +0.072 C 
BRANCH  10  11
ATOM     11  C   UNL     1      -2.524 -17.075  46.741  0.00  0.00    +0.311 C 
ATOM     12  O   UNL     1      -1.627 -16.268  46.511  0.00  0.00    -0.250 OA
BRANCH  11  13
ATOM     13  O   UNL     1      -3.284 -17.676  45.777  0.00  0.00    -0.468 OA
ATOM     14  C   UNL     1      -2.636 -18.789  45.150  0.00  0.00    +0.082 C 
ENDBRANCH  11  13
ENDBRANCH  10  11
ENDBRANCH   9  10
BRANCH   7  15
ATOM     15  C   UNL     1      -0.499 -21.552  49.873  0.00  0.00    +0.048 C 
BRANCH  15  16
ATOM     16  C   UNL     1       0.365 -22.220  48.830  0.00  0.00    -0.028 A 
ATOM     17  C   UNL     1       1.728 -21.908  48.747  0.00  0.00    -0.056 A 
ATOM     18  C   UNL     1       2.490 -22.345  47.663  0.00  0.00    -0.047 A 
ATOM     19  C   UNL     1       1.899 -23.129  46.676  0.00  0.00    +0.018 A 
ATOM     20  C   UNL     1       0.575 -23.544  46.801  0.00  0.00    -0.047 A 
ATOM     21  C   UNL     1      -0.190 -23.092  47.879  0.00  0.00    -0.056 A 
ATOM     22 BR   UNL     1       2.875 -23.560  45.115  0.00  0.00    -0.050 Br
ENDBRANCH  15  16
ENDBRANCH   7  15
TORSDOF 5
ENDMDL
