MODEL 1
REMARK VINA RESULT:    -7.025      0.000      0.000
REMARK INTER + INTRA:          -9.307
REMARK INTER:                  -8.667
REMARK INTRA:                  -0.640
REMARK UNBOUND:                -0.640
REMARK  Name = 7d.sdf
REMARK  5 active torsions:
REMARK  status: ('A' for Active; 'I' for Inactive)
REMARK    1  A    between atoms: C_9  and  C_10
REMARK    2  A    between atoms: C_10  and  C_11
REMARK    3  A    between atoms: C_11  and  O_20
REMARK    4  A    between atoms: C_12  and  C_13
REMARK    5  A    between atoms: O_20  and  C_22
REMARK                            x       y       z     vdW  Elec       q    Type
REMARK                         _______ _______ _______ _____ _____    ______ ____
ROOT
ATOM      1  C   UNL     1       0.056 -21.111  50.532  0.00  0.00    -0.061 A 
ATOM      2  C   UNL     1      -0.318 -22.035  49.565  0.00  0.00    -0.060 A 
ATOM      3  C   UNL     1      -1.024 -21.636  48.426  0.00  0.00    -0.037 A 
ATOM      4  C   UNL     1      -1.357 -20.276  48.282  0.00  0.00    +0.057 A 
ATOM      5  C   UNL     1      -0.978 -19.327  49.243  0.00  0.00    +0.004 A 
ATOM      6  C   UNL     1      -0.265 -19.760  50.382  0.00  0.00    -0.052 A 
ATOM      7  N   UNL     1      -1.988 -19.596  47.241  0.00  0.00    -0.283 N 
ATOM      8  C   UNL     1      -2.107 -18.270  47.617  0.00  0.00    +0.018 A 
ATOM      9  C   UNL     1      -1.433 -18.049  48.798  0.00  0.00    -0.011 A 
ATOM     10  C   UNL     1      -2.426 -20.121  46.000  0.00  0.00    +0.263 C 
ATOM     11  O   UNL     1      -2.672 -21.321  45.920  0.00  0.00    -0.267 OA
ENDROOT
BRANCH  10  12
ATOM     12  C   UNL     1      -2.598 -19.267  44.795  0.00  0.00    +0.040 A 
ATOM     13  C   UNL     1      -1.494 -18.981  43.979  0.00  0.00    -0.049 A 
ATOM     14  C   UNL     1      -1.635 -18.129  42.886  0.00  0.00    -0.061 A 
ATOM     15  C   UNL     1      -2.882 -17.584  42.588  0.00  0.00    -0.062 A 
ATOM     16  C   UNL     1      -3.994 -17.907  43.370  0.00  0.00    -0.061 A 
ATOM     17  C   UNL     1      -3.859 -18.758  44.474  0.00  0.00    -0.049 A 
ENDBRANCH  10  12
BRANCH   9  18
ATOM     18  C   UNL     1      -1.248 -16.718  49.461  0.00  0.00    +0.072 C 
BRANCH  18  19
ATOM     19  C   UNL     1      -2.434 -15.787  49.258  0.00  0.00    +0.311 C 
ATOM     20  O   UNL     1      -2.498 -14.848  48.476  0.00  0.00    -0.250 OA
BRANCH  19  21
ATOM     21  O   UNL     1      -3.453 -16.171  50.085  0.00  0.00    -0.468 OA
ATOM     22  C   UNL     1      -4.718 -16.271  49.428  0.00  0.00    +0.082 C 
ENDBRANCH  19  21
ENDBRANCH  18  19
ENDBRANCH   9  18
TORSDOF 4
ENDMDL
