MODEL 1
REMARK VINA RESULT:    -8.097      0.000      0.000
REMARK INTER + INTRA:         -11.308
REMARK INTER:                 -10.464
REMARK INTRA:                  -0.843
REMARK UNBOUND:                -0.843
REMARK  Name = 8a.sdf
REMARK  5 active torsions:
REMARK  status: ('A' for Active; 'I' for Inactive)
REMARK    1  A    between atoms: N_7  and  C_12
REMARK    2  A    between atoms: C_9  and  C_10
REMARK    3  A    between atoms: N_11  and  N_20
REMARK    4  A    between atoms: C_12  and  C_13
REMARK    5  A    between atoms: C_21  and  C_23
REMARK                            x       y       z     vdW  Elec       q    Type
REMARK                         _______ _______ _______ _____ _____    ______ ____
ROOT
ATOM      1  C   UNL     1      -0.079 -21.214  50.431  0.00  0.00    -0.061 A 
ATOM      2  C   UNL     1      -0.937 -21.406  49.355  0.00  0.00    -0.060 A 
ATOM      3  C   UNL     1      -1.446 -20.318  48.639  0.00  0.00    -0.038 A 
ATOM      4  C   UNL     1      -1.060 -19.023  49.026  0.00  0.00    +0.050 A 
ATOM      5  C   UNL     1      -0.161 -18.809  50.078  0.00  0.00    +0.009 A 
ATOM      6  C   UNL     1       0.321 -19.926  50.796  0.00  0.00    -0.052 A 
ATOM      7  N   UNL     1      -1.427 -17.778  48.550  0.00  0.00    -0.342 N 
ATOM      8  C   UNL     1      -0.728 -16.802  49.216  0.00  0.00    +0.015 A 
ATOM      9  C   UNL     1       0.074 -17.401  50.168  0.00  0.00    +0.020 A 
ENDROOT
BRANCH   9  10
ATOM     10  C   UNL     1       0.976 -16.721  51.068  0.00  0.00    +0.055 C 
ATOM     11  N   UNL     1       2.194 -17.142  51.204  0.00  0.00    -0.187 NA
BRANCH  11  12
ATOM     12  N   UNL     1       2.974 -16.444  52.082  0.00  0.00    -0.203 N 
ATOM     13  C   UNL     1       3.986 -15.626  51.595  0.00  0.00    +0.263 C 
ATOM     14  O   UNL     1       4.251 -15.452  50.413  0.00  0.00    -0.268 OA
ATOM     15  H   UNL     1       2.821 -16.520  53.051  0.00  0.00    +0.000 HD
BRANCH  13  16
ATOM     16  C   UNL     1       4.767 -14.887  52.630  0.00  0.00    +0.038 A 
ATOM     17  C   UNL     1       6.101 -14.502  52.439  0.00  0.00    -0.049 A 
ATOM     18  C   UNL     1       6.782 -13.812  53.447  0.00  0.00    -0.047 A 
ATOM     19  C   UNL     1       6.127 -13.497  54.639  0.00  0.00    +0.018 A 
ATOM     20  C   UNL     1       4.796 -13.853  54.831  0.00  0.00    -0.047 A 
ATOM     21  C   UNL     1       4.114 -14.542  53.823  0.00  0.00    -0.049 A 
ATOM     22 BR   UNL     1       7.055 -12.569  55.998  0.00  0.00    -0.050 Br
ENDBRANCH  13  16
ENDBRANCH  11  12
ENDBRANCH   9  10
BRANCH   7  23
ATOM     23  C   UNL     1      -2.474 -17.501  47.568  0.00  0.00    +0.048 C 
BRANCH  23  24
ATOM     24  C   UNL     1      -2.058 -17.908  46.176  0.00  0.00    -0.028 A 
ATOM     25  C   UNL     1      -1.035 -17.220  45.506  0.00  0.00    -0.056 A 
ATOM     26  C   UNL     1      -0.723 -17.526  44.181  0.00  0.00    -0.047 A 
ATOM     27  C   UNL     1      -1.423 -18.532  43.520  0.00  0.00    +0.018 A 
ATOM     28  C   UNL     1      -2.406 -19.262  44.186  0.00  0.00    -0.047 A 
ATOM     29  C   UNL     1      -2.721 -18.951  45.510  0.00  0.00    -0.056 A 
ATOM     30 BR   UNL     1      -1.060 -18.887  41.700  0.00  0.00    -0.050 Br
ENDBRANCH  23  24
ENDBRANCH   7  23
TORSDOF 5
ENDMDL
