MODEL 1
REMARK VINA RESULT:    -7.661      0.000      0.000
REMARK INTER + INTRA:         -10.847
REMARK INTER:                  -9.900
REMARK INTRA:                  -0.947
REMARK UNBOUND:                -0.947
REMARK  Name = 8b.sdf
REMARK  5 active torsions:
REMARK  status: ('A' for Active; 'I' for Inactive)
REMARK    1  A    between atoms: N_7  and  C_12
REMARK    2  A    between atoms: C_9  and  C_10
REMARK    3  A    between atoms: N_11  and  N_19
REMARK    4  A    between atoms: C_12  and  C_13
REMARK    5  A    between atoms: C_20  and  C_22
REMARK                            x       y       z     vdW  Elec       q    Type
REMARK                         _______ _______ _______ _____ _____    ______ ____
ROOT
ATOM      1  C   UNL     1      -1.168 -21.278  48.611  0.00  0.00    -0.061 A 
ATOM      2  C   UNL     1      -0.255 -21.177  47.569  0.00  0.00    -0.060 A 
ATOM      3  C   UNL     1      -0.150 -20.004  46.812  0.00  0.00    -0.038 A 
ATOM      4  C   UNL     1      -0.993 -18.925  47.131  0.00  0.00    +0.050 A 
ATOM      5  C   UNL     1      -1.881 -18.987  48.214  0.00  0.00    +0.009 A 
ATOM      6  C   UNL     1      -1.973 -20.188  48.951  0.00  0.00    -0.052 A 
ATOM      7  N   UNL     1      -1.170 -17.687  46.538  0.00  0.00    -0.342 N 
ATOM      8  C   UNL     1      -2.072 -16.950  47.265  0.00  0.00    +0.015 A 
ATOM      9  C   UNL     1      -2.521 -17.714  48.324  0.00  0.00    +0.020 A 
ENDROOT
BRANCH   9  10
ATOM     10  C   UNL     1      -3.462 -17.289  49.340  0.00  0.00    +0.055 C 
ATOM     11  N   UNL     1      -4.594 -16.767  48.989  0.00  0.00    -0.187 NA
BRANCH  11  12
ATOM     12  N   UNL     1      -5.416 -16.380  50.008  0.00  0.00    -0.203 N 
ATOM     13  C   UNL     1      -5.649 -15.025  50.221  0.00  0.00    +0.263 C 
ATOM     14  O   UNL     1      -5.183 -14.113  49.550  0.00  0.00    -0.268 OA
ATOM     15  H   UNL     1      -5.841 -17.054  50.586  0.00  0.00    +0.000 HD
BRANCH  13  16
ATOM     16  C   UNL     1      -6.580 -14.700  51.340  0.00  0.00    +0.038 A 
ATOM     17  C   UNL     1      -7.197 -15.688  52.119  0.00  0.00    -0.049 A 
ATOM     18  C   UNL     1      -8.073 -15.326  53.148  0.00  0.00    -0.047 A 
ATOM     19  C   UNL     1      -8.325 -13.977  53.404  0.00  0.00    +0.018 A 
ATOM     20  C   UNL     1      -7.695 -12.987  52.656  0.00  0.00    -0.047 A 
ATOM     21  C   UNL     1      -6.819 -13.348  51.628  0.00  0.00    -0.049 A 
ATOM     22 BR   UNL     1      -9.524 -13.493  54.783  0.00  0.00    -0.050 Br
ENDBRANCH  13  16
ENDBRANCH  11  12
ENDBRANCH   9  10
BRANCH   7  23
ATOM     23  C   UNL     1      -0.612 -17.240  45.263  0.00  0.00    +0.048 C 
BRANCH  23  24
ATOM     24  C   UNL     1      -1.576 -17.434  44.122  0.00  0.00    -0.025 A 
ATOM     25  C   UNL     1      -2.391 -16.386  43.687  0.00  0.00    -0.039 A 
ATOM     26  C   UNL     1      -3.319 -16.632  42.687  0.00  0.00    +0.028 A 
ATOM     27  N   UNL     1      -3.471 -17.827  42.082  0.00  0.00    -0.263 NA
ATOM     28  C   UNL     1      -2.658 -18.822  42.495  0.00  0.00    +0.028 A 
ATOM     29  C   UNL     1      -1.707 -18.677  43.492  0.00  0.00    -0.039 A 
ENDBRANCH  23  24
ENDBRANCH   7  23
TORSDOF 5
ENDMDL
