MODEL 1
REMARK VINA RESULT:    -8.051      0.000      0.000
REMARK INTER + INTRA:         -11.223
REMARK INTER:                 -10.404
REMARK INTRA:                  -0.818
REMARK UNBOUND:                -0.818
REMARK  Name = 8c.sdf
REMARK  5 active torsions:
REMARK  status: ('A' for Active; 'I' for Inactive)
REMARK    1  A    between atoms: N_7  and  C_12
REMARK    2  A    between atoms: C_9  and  C_10
REMARK    3  A    between atoms: N_11  and  N_20
REMARK    4  A    between atoms: C_12  and  C_13
REMARK    5  A    between atoms: C_21  and  C_23
REMARK                            x       y       z     vdW  Elec       q    Type
REMARK                         _______ _______ _______ _____ _____    ______ ____
ROOT
ATOM      1  C   UNL     1      -3.166 -17.804  41.525  0.00  0.00    -0.061 A 
ATOM      2  C   UNL     1      -2.131 -18.287  40.732  0.00  0.00    -0.060 A 
ATOM      3  C   UNL     1      -0.830 -18.387  41.234  0.00  0.00    -0.038 A 
ATOM      4  C   UNL     1      -0.593 -18.000  42.563  0.00  0.00    +0.050 A 
ATOM      5  C   UNL     1      -1.628 -17.553  43.394  0.00  0.00    +0.009 A 
ATOM      6  C   UNL     1      -2.930 -17.441  42.853  0.00  0.00    -0.052 A 
ATOM      7  N   UNL     1       0.569 -17.948  43.310  0.00  0.00    -0.342 N 
ATOM      8  C   UNL     1       0.281 -17.554  44.593  0.00  0.00    +0.015 A 
ATOM      9  C   UNL     1      -1.075 -17.307  44.689  0.00  0.00    +0.020 A 
ENDROOT
BRANCH   9  10
ATOM     10  C   UNL     1      -1.782 -16.888  45.880  0.00  0.00    +0.055 C 
ATOM     11  N   UNL     1      -2.721 -17.633  46.368  0.00  0.00    -0.187 NA
BRANCH  11  12
ATOM     12  N   UNL     1      -3.340 -17.154  47.488  0.00  0.00    -0.203 N 
ATOM     13  C   UNL     1      -4.346 -16.203  47.358  0.00  0.00    +0.263 C 
ATOM     14  O   UNL     1      -4.759 -15.750  46.295  0.00  0.00    -0.268 OA
ATOM     15  H   UNL     1      -3.076 -17.478  48.379  0.00  0.00    +0.000 HD
BRANCH  13  16
ATOM     16  C   UNL     1      -4.975 -15.751  48.633  0.00  0.00    +0.038 A 
ATOM     17  C   UNL     1      -5.361 -16.646  49.643  0.00  0.00    -0.049 A 
ATOM     18  C   UNL     1      -5.951 -16.168  50.818  0.00  0.00    -0.047 A 
ATOM     19  C   UNL     1      -6.148 -14.799  50.989  0.00  0.00    +0.018 A 
ATOM     20  C   UNL     1      -5.750 -13.898  50.003  0.00  0.00    -0.047 A 
ATOM     21  C   UNL     1      -5.159 -14.376  48.828  0.00  0.00    -0.049 A 
ATOM     22 BR   UNL     1      -6.952 -14.156  52.575  0.00  0.00    -0.050 Br
ENDBRANCH  13  16
ENDBRANCH  11  12
ENDBRANCH   9  10
BRANCH   7  23
ATOM     23  C   UNL     1       1.926 -18.172  42.815  0.00  0.00    +0.048 C 
BRANCH  23  24
ATOM     24  C   UNL     1       2.254 -19.642  42.731  0.00  0.00    -0.028 A 
ATOM     25  C   UNL     1       2.531 -20.380  43.892  0.00  0.00    -0.055 A 
ATOM     26  C   UNL     1       2.932 -21.714  43.807  0.00  0.00    -0.043 A 
ATOM     27  C   UNL     1       3.048 -22.324  42.559  0.00  0.00    +0.041 A 
ATOM     28  C   UNL     1       2.732 -21.621  41.400  0.00  0.00    -0.043 A 
ATOM     29  C   UNL     1       2.335 -20.284  41.485  0.00  0.00    -0.055 A 
ATOM     30 CL   UNL     1       3.604 -23.949  42.453  0.00  0.00    -0.084 Cl
ENDBRANCH  23  24
ENDBRANCH   7  23
TORSDOF 5
ENDMDL
