MODEL 1
REMARK VINA RESULT:    -7.263      0.000      0.000
REMARK INTER + INTRA:          -9.139
REMARK INTER:                  -8.537
REMARK INTRA:                  -0.602
REMARK UNBOUND:                -0.602
REMARK  Name = 9.sdf
REMARK  3 active torsions:
REMARK  status: ('A' for Active; 'I' for Inactive)
REMARK    1  A    between atoms: C_9  and  C_10
REMARK    2  A    between atoms: C_11  and  C_12
REMARK    3  A    between atoms: C_12  and  C_13
REMARK                            x       y       z     vdW  Elec       q    Type
REMARK                         _______ _______ _______ _____ _____    ______ ____
ROOT
ATOM      1  C   UNL     1      -0.634 -19.029  41.439  0.00  0.00    -0.061 A 
ATOM      2  C   UNL     1      -1.534 -18.279  40.690  0.00  0.00    -0.060 A 
ATOM      3  C   UNL     1      -2.770 -17.902  41.221  0.00  0.00    -0.038 A 
ATOM      4  C   UNL     1      -3.066 -18.296  42.533  0.00  0.00    +0.047 A 
ATOM      5  C   UNL     1      -2.181 -19.034  43.324  0.00  0.00    +0.007 A 
ATOM      6  C   UNL     1      -0.946 -19.416  42.748  0.00  0.00    -0.052 A 
ATOM      7  N   UNL     1      -4.197 -18.078  43.285  0.00  0.00    -0.360 N 
ATOM      8  C   UNL     1      -4.066 -18.653  44.521  0.00  0.00    +0.010 A 
ATOM      9  C   UNL     1      -2.818 -19.230  44.593  0.00  0.00    +0.000 A 
ATOM     10  H   UNL     1      -4.988 -17.579  42.978  0.00  0.00    +0.000 HD
ENDROOT
BRANCH   9  11
ATOM     11  C   UNL     1      -2.341 -19.899  45.765  0.00  0.00    -0.049 C 
ATOM     12  C   UNL     1      -1.965 -19.278  46.892  0.00  0.00    -0.014 C 
BRANCH  12  13
ATOM     13  C   UNL     1      -1.437 -20.026  48.061  0.00  0.00    +0.186 C 
ATOM     14  O   UNL     1      -1.757 -19.761  49.213  0.00  0.00    -0.287 OA
BRANCH  13  15
ATOM     15  C   UNL     1      -0.454 -21.104  47.761  0.00  0.00    +0.022 A 
ATOM     16  C   UNL     1       0.882 -20.765  47.524  0.00  0.00    -0.051 A 
ATOM     17  C   UNL     1       1.810 -21.765  47.218  0.00  0.00    -0.061 A 
ATOM     18  C   UNL     1       1.410 -23.100  47.163  0.00  0.00    -0.062 A 
ATOM     19  C   UNL     1       0.086 -23.445  47.426  0.00  0.00    -0.061 A 
ATOM     20  C   UNL     1      -0.844 -22.450  47.731  0.00  0.00    -0.051 A 
ENDBRANCH  13  15
ENDBRANCH  12  13
ENDBRANCH   9  11
TORSDOF 3
ENDMDL
