MODEL 1
REMARK VINA RESULT:    -8.618      0.000      0.000
REMARK INTER + INTRA:          -9.812
REMARK INTER:                  -9.625
REMARK INTRA:                  -0.187
REMARK UNBOUND:                -0.187
REMARK  Name = 0a.sdf
REMARK  2 active torsions:
REMARK  status: ('A' for Active; 'I' for Inactive)
REMARK    1  A    between atoms: N_7  and  C_10
REMARK    2  A    between atoms: C_10  and  C_11
REMARK                            x       y       z     vdW  Elec       q    Type
REMARK                         _______ _______ _______ _____ _____    ______ ____
ROOT
ATOM      1  C   UNL     1       6.968  -2.270 -19.156  0.00  0.00    -0.061 A 
ATOM      2  C   UNL     1       6.602  -2.015 -20.472  0.00  0.00    -0.060 A 
ATOM      3  C   UNL     1       5.259  -2.081 -20.869  0.00  0.00    -0.038 A 
ATOM      4  C   UNL     1       4.289  -2.404 -19.907  0.00  0.00    +0.049 A 
ATOM      5  C   UNL     1       4.643  -2.627 -18.569  0.00  0.00    -0.000 A 
ATOM      6  C   UNL     1       5.999  -2.563 -18.194  0.00  0.00    -0.053 A 
ATOM      7  N   UNL     1       2.919  -2.603 -19.994  0.00  0.00    -0.342 N 
ATOM      8  C   UNL     1       2.403  -2.851 -18.744  0.00  0.00    +0.006 A 
ATOM      9  C   UNL     1       3.446  -2.876 -17.846  0.00  0.00    -0.036 A 
ENDROOT
BRANCH   7  10
ATOM     10  C   UNL     1       2.127  -2.700 -21.220  0.00  0.00    +0.048 C 
BRANCH  10  11
ATOM     11  C   UNL     1       0.655  -2.516 -20.957  0.00  0.00    -0.028 A 
ATOM     12  C   UNL     1      -0.189  -3.630 -20.846  0.00  0.00    -0.056 A 
ATOM     13  C   UNL     1      -1.571  -3.469 -20.744  0.00  0.00    -0.047 A 
ATOM     14  C   UNL     1      -2.118  -2.189 -20.733  0.00  0.00    +0.018 A 
ATOM     15  C   UNL     1      -1.292  -1.068 -20.766  0.00  0.00    -0.047 A 
ATOM     16  C   UNL     1       0.092  -1.231 -20.874  0.00  0.00    -0.056 A 
ATOM     17 BR   UNL     1      -3.995  -1.973 -20.724  0.00  0.00    -0.050 Br
ENDBRANCH  10  11
ENDBRANCH   7  10
TORSDOF 2
ENDMDL
MODEL 2
REMARK VINA RESULT:    -8.387      3.039      6.741
REMARK INTER + INTRA:          -9.555
REMARK INTER:                  -9.334
REMARK INTRA:                  -0.221
REMARK UNBOUND:                -0.187
REMARK  Name = 0a.sdf
REMARK  2 active torsions:
REMARK  status: ('A' for Active; 'I' for Inactive)
REMARK    1  A    between atoms: N_7  and  C_10
REMARK    2  A    between atoms: C_10  and  C_11
REMARK                            x       y       z     vdW  Elec       q    Type
REMARK                         _______ _______ _______ _____ _____    ______ ____
ROOT
ATOM      1  C   UNL     1      -3.422  -1.667 -20.716  0.00  0.00    -0.061 A 
ATOM      2  C   UNL     1      -2.925  -2.965 -20.715  0.00  0.00    -0.060 A 
ATOM      3  C   UNL     1      -1.544  -3.204 -20.762  0.00  0.00    -0.038 A 
ATOM      4  C   UNL     1      -0.673  -2.105 -20.805  0.00  0.00    +0.049 A 
ATOM      5  C   UNL     1      -1.161  -0.792 -20.770  0.00  0.00    -0.000 A 
ATOM      6  C   UNL     1      -2.553  -0.575 -20.730  0.00  0.00    -0.053 A 
ATOM      7  N   UNL     1       0.707  -2.013 -20.916  0.00  0.00    -0.342 N 
ATOM      8  C   UNL     1       1.093  -0.694 -20.859  0.00  0.00    +0.006 A 
ATOM      9  C   UNL     1      -0.042   0.081 -20.774  0.00  0.00    -0.036 A 
ENDROOT
BRANCH   7  10
ATOM     10  C   UNL     1       1.635  -3.106 -21.207  0.00  0.00    +0.048 C 
BRANCH  10  11
ATOM     11  C   UNL     1       3.018  -2.827 -20.679  0.00  0.00    -0.028 A 
ATOM     12  C   UNL     1       4.102  -2.707 -21.560  0.00  0.00    -0.056 A 
ATOM     13  C   UNL     1       5.405  -2.590 -21.075  0.00  0.00    -0.047 A 
ATOM     14  C   UNL     1       5.631  -2.574 -19.701  0.00  0.00    +0.018 A 
ATOM     15  C   UNL     1       4.562  -2.616 -18.810  0.00  0.00    -0.047 A 
ATOM     16  C   UNL     1       3.258  -2.738 -19.297  0.00  0.00    -0.056 A 
ATOM     17 BR   UNL     1       7.403  -2.545 -19.044  0.00  0.00    -0.050 Br
ENDBRANCH  10  11
ENDBRANCH   7  10
TORSDOF 2
ENDMDL
MODEL 3
REMARK VINA RESULT:    -8.087      1.534      2.736
REMARK INTER + INTRA:          -9.220
REMARK INTER:                  -8.907
REMARK INTRA:                  -0.312
REMARK UNBOUND:                -0.187
REMARK  Name = 0a.sdf
REMARK  2 active torsions:
REMARK  status: ('A' for Active; 'I' for Inactive)
REMARK    1  A    between atoms: N_7  and  C_10
REMARK    2  A    between atoms: C_10  and  C_11
REMARK                            x       y       z     vdW  Elec       q    Type
REMARK                         _______ _______ _______ _____ _____    ______ ____
ROOT
ATOM      1  C   UNL     1       4.325  -2.604 -17.836  0.00  0.00    -0.061 A 
ATOM      2  C   UNL     1       3.218  -1.848 -17.468  0.00  0.00    -0.060 A 
ATOM      3  C   UNL     1       2.234  -1.513 -18.410  0.00  0.00    -0.038 A 
ATOM      4  C   UNL     1       2.387  -1.961 -19.731  0.00  0.00    +0.049 A 
ATOM      5  C   UNL     1       3.481  -2.754 -20.104  0.00  0.00    -0.000 A 
ATOM      6  C   UNL     1       4.461  -3.073 -19.143  0.00  0.00    -0.053 A 
ATOM      7  N   UNL     1       1.639  -1.751 -20.879  0.00  0.00    -0.342 N 
ATOM      8  C   UNL     1       2.180  -2.460 -21.926  0.00  0.00    +0.006 A 
ATOM      9  C   UNL     1       3.322  -3.084 -21.476  0.00  0.00    -0.036 A 
ENDROOT
BRANCH   7  10
ATOM     10  C   UNL     1       0.531  -0.809 -21.040  0.00  0.00    +0.048 C 
BRANCH  10  11
ATOM     11  C   UNL     1      -0.808  -1.477 -20.860  0.00  0.00    -0.028 A 
ATOM     12  C   UNL     1      -1.983  -0.712 -20.829  0.00  0.00    -0.056 A 
ATOM     13  C   UNL     1      -3.209  -1.303 -20.523  0.00  0.00    -0.047 A 
ATOM     14  C   UNL     1      -3.271  -2.670 -20.263  0.00  0.00    +0.018 A 
ATOM     15  C   UNL     1      -2.129  -3.460 -20.363  0.00  0.00    -0.047 A 
ATOM     16  C   UNL     1      -0.900  -2.866 -20.665  0.00  0.00    -0.056 A 
ATOM     17 BR   UNL     1      -4.907  -3.447 -19.724  0.00  0.00    -0.050 Br
ENDBRANCH  10  11
ENDBRANCH   7  10
TORSDOF 2
ENDMDL
