MODEL 1
REMARK VINA RESULT:    -8.967      0.000      0.000
REMARK INTER + INTRA:          -9.728
REMARK INTER:                  -9.492
REMARK INTRA:                  -0.236
REMARK UNBOUND:                -0.236
REMARK  Name = 0d.sdf
REMARK  1 active torsions:
REMARK  status: ('A' for Active; 'I' for Inactive)
REMARK    1  A    between atoms: C_10  and  C_11
REMARK                            x       y       z     vdW  Elec       q    Type
REMARK                         _______ _______ _______ _____ _____    ______ ____
ROOT
ATOM      1  C   UNL     1       6.783  -2.119 -19.293  0.00  0.00    -0.061 A 
ATOM      2  C   UNL     1       6.346  -2.179 -20.611  0.00  0.00    -0.060 A 
ATOM      3  C   UNL     1       4.997  -2.401 -20.913  0.00  0.00    -0.037 A 
ATOM      4  C   UNL     1       4.090  -2.567 -19.850  0.00  0.00    +0.057 A 
ATOM      5  C   UNL     1       4.518  -2.497 -18.519  0.00  0.00    +0.000 A 
ATOM      6  C   UNL     1       5.880  -2.277 -18.240  0.00  0.00    -0.053 A 
ATOM      7  N   UNL     1       2.705  -2.748 -19.844  0.00  0.00    -0.283 N 
ATOM      8  C   UNL     1       2.298  -2.847 -18.520  0.00  0.00    +0.014 A 
ATOM      9  C   UNL     1       3.382  -2.681 -17.694  0.00  0.00    -0.036 A 
ATOM     10  C   UNL     1       1.843  -2.811 -20.968  0.00  0.00    +0.263 C 
ATOM     11  O   UNL     1       2.314  -3.156 -22.048  0.00  0.00    -0.267 OA
ENDROOT
BRANCH  10  12
ATOM     12  C   UNL     1       0.394  -2.476 -20.891  0.00  0.00    +0.040 A 
ATOM     13  C   UNL     1      -0.025  -1.140 -20.928  0.00  0.00    -0.049 A 
ATOM     14  C   UNL     1      -1.378  -0.826 -20.805  0.00  0.00    -0.061 A 
ATOM     15  C   UNL     1      -2.318  -1.849 -20.676  0.00  0.00    -0.062 A 
ATOM     16  C   UNL     1      -1.909  -3.183 -20.695  0.00  0.00    -0.061 A 
ATOM     17  C   UNL     1      -0.553  -3.501 -20.812  0.00  0.00    -0.049 A 
ENDBRANCH  10  12
TORSDOF 1
ENDMDL
MODEL 2
REMARK VINA RESULT:    -8.758      1.130      6.158
REMARK INTER + INTRA:          -9.506
REMARK INTER:                  -9.270
REMARK INTRA:                  -0.236
REMARK UNBOUND:                -0.236
REMARK  Name = 0d.sdf
REMARK  1 active torsions:
REMARK  status: ('A' for Active; 'I' for Inactive)
REMARK    1  A    between atoms: C_10  and  C_11
REMARK                            x       y       z     vdW  Elec       q    Type
REMARK                         _______ _______ _______ _____ _____    ______ ____
ROOT
ATOM      1  C   UNL     1      -3.457  -1.657 -20.775  0.00  0.00    -0.061 A 
ATOM      2  C   UNL     1      -2.884  -2.922 -20.845  0.00  0.00    -0.060 A 
ATOM      3  C   UNL     1      -1.495  -3.086 -20.806  0.00  0.00    -0.037 A 
ATOM      4  C   UNL     1      -0.686  -1.940 -20.697  0.00  0.00    +0.057 A 
ATOM      5  C   UNL     1      -1.253  -0.662 -20.614  0.00  0.00    +0.000 A 
ATOM      6  C   UNL     1      -2.653  -0.522 -20.660  0.00  0.00    -0.053 A 
ATOM      7  N   UNL     1       0.700  -1.800 -20.586  0.00  0.00    -0.283 N 
ATOM      8  C   UNL     1       0.980  -0.443 -20.496  0.00  0.00    +0.014 A 
ATOM      9  C   UNL     1      -0.193   0.269 -20.494  0.00  0.00    -0.036 A 
ATOM     10  C   UNL     1       1.667  -2.836 -20.556  0.00  0.00    +0.263 C 
ATOM     11  O   UNL     1       1.386  -3.913 -21.074  0.00  0.00    -0.267 OA
ENDROOT
BRANCH  10  12
ATOM     12  C   UNL     1       3.004  -2.670 -19.923  0.00  0.00    +0.040 A 
ATOM     13  C   UNL     1       3.150  -2.796 -18.535  0.00  0.00    -0.049 A 
ATOM     14  C   UNL     1       4.393  -2.591 -17.939  0.00  0.00    -0.061 A 
ATOM     15  C   UNL     1       5.501  -2.290 -18.733  0.00  0.00    -0.062 A 
ATOM     16  C   UNL     1       5.371  -2.218 -20.120  0.00  0.00    -0.061 A 
ATOM     17  C   UNL     1       4.124  -2.417 -20.721  0.00  0.00    -0.049 A 
ENDBRANCH  10  12
TORSDOF 1
ENDMDL
MODEL 3
REMARK VINA RESULT:    -8.529      0.888      1.569
REMARK INTER + INTRA:          -9.264
REMARK INTER:                  -9.065
REMARK INTRA:                  -0.199
REMARK UNBOUND:                -0.236
REMARK  Name = 0d.sdf
REMARK  1 active torsions:
REMARK  status: ('A' for Active; 'I' for Inactive)
REMARK    1  A    between atoms: C_10  and  C_11
REMARK                            x       y       z     vdW  Elec       q    Type
REMARK                         _______ _______ _______ _____ _____    ______ ____
ROOT
ATOM      1  C   UNL     1       6.143  -2.343 -20.643  0.00  0.00    -0.061 A 
ATOM      2  C   UNL     1       5.453  -2.658 -21.808  0.00  0.00    -0.060 A 
ATOM      3  C   UNL     1       4.063  -2.822 -21.800  0.00  0.00    -0.037 A 
ATOM      4  C   UNL     1       3.376  -2.663 -20.583  0.00  0.00    +0.057 A 
ATOM      5  C   UNL     1       4.059  -2.335 -19.405  0.00  0.00    +0.000 A 
ATOM      6  C   UNL     1       5.458  -2.179 -19.438  0.00  0.00    -0.053 A 
ATOM      7  N   UNL     1       2.012  -2.716 -20.284  0.00  0.00    -0.283 N 
ATOM      8  C   UNL     1       1.869  -2.478 -18.923  0.00  0.00    +0.014 A 
ATOM      9  C   UNL     1       3.100  -2.227 -18.370  0.00  0.00    -0.036 A 
ATOM     10  C   UNL     1       0.944  -2.952 -21.186  0.00  0.00    +0.263 C 
ATOM     11  O   UNL     1       1.179  -3.571 -22.220  0.00  0.00    -0.267 OA
ENDROOT
BRANCH  10  12
ATOM     12  C   UNL     1      -0.444  -2.481 -20.930  0.00  0.00    +0.040 A 
ATOM     13  C   UNL     1      -1.464  -3.403 -20.658  0.00  0.00    -0.049 A 
ATOM     14  C   UNL     1      -2.774  -2.964 -20.469  0.00  0.00    -0.061 A 
ATOM     15  C   UNL     1      -3.061  -1.600 -20.519  0.00  0.00    -0.062 A 
ATOM     16  C   UNL     1      -2.039  -0.675 -20.735  0.00  0.00    -0.061 A 
ATOM     17  C   UNL     1      -0.726  -1.112 -20.932  0.00  0.00    -0.049 A 
ENDBRANCH  10  12
TORSDOF 1
ENDMDL
