MODEL 1
REMARK VINA RESULT:    -6.583      0.000      0.000
REMARK INTER + INTRA:          -8.030
REMARK INTER:                  -7.738
REMARK INTRA:                  -0.292
REMARK UNBOUND:                -0.292
REMARK  Name = 14.sdf
REMARK  4 active torsions:
REMARK  status: ('A' for Active; 'I' for Inactive)
REMARK    1  A    between atoms: C_9  and  C_10
REMARK    2  A    between atoms: C_10  and  O_11
REMARK    3  A    between atoms: O_11  and  C_12
REMARK    4  A    between atoms: C_12  and  C_13
REMARK                            x       y       z     vdW  Elec       q    Type
REMARK                         _______ _______ _______ _____ _____    ______ ____
ROOT
ATOM      1  C   UNL     1      -0.608   0.837 -20.489  0.00  0.00    -0.061 A 
ATOM      2  C   UNL     1       0.603   0.231 -20.805  0.00  0.00    -0.060 A 
ATOM      3  C   UNL     1       0.678  -1.146 -21.028  0.00  0.00    -0.038 A 
ATOM      4  C   UNL     1      -0.502  -1.892 -20.913  0.00  0.00    +0.047 A 
ATOM      5  C   UNL     1      -1.734  -1.318 -20.595  0.00  0.00    +0.006 A 
ATOM      6  C   UNL     1      -1.780   0.078 -20.385  0.00  0.00    -0.052 A 
ATOM      7  N   UNL     1      -0.712  -3.242 -21.068  0.00  0.00    -0.360 N 
ATOM      8  C   UNL     1      -2.029  -3.546 -20.846  0.00  0.00    +0.009 A 
ATOM      9  C   UNL     1      -2.705  -2.374 -20.550  0.00  0.00    +0.015 A 
ATOM     10  H   UNL     1      -0.016  -3.897 -21.305  0.00  0.00    +0.000 HD
ENDROOT
BRANCH   9  11
ATOM     11  C   UNL     1      -4.171  -2.248 -20.239  0.00  0.00    +0.119 C 
BRANCH  11  12
ATOM     12  O   UNL     1      -4.411  -2.090 -18.807  0.00  0.00    -0.460 OA
BRANCH  12  13
ATOM     13  C   UNL     1      -4.654  -3.213 -18.064  0.00  0.00    +0.304 C 
ATOM     14  C   UNL     1      -4.569  -3.007 -16.569  0.00  0.00    +0.033 C 
ATOM     15  O   UNL     1      -4.913  -4.309 -18.524  0.00  0.00    -0.251 OA
ENDBRANCH  12  13
ENDBRANCH  11  12
ENDBRANCH   9  11
TORSDOF 3
ENDMDL
MODEL 2
REMARK VINA RESULT:    -6.524      3.653      5.227
REMARK INTER + INTRA:          -7.960
REMARK INTER:                  -7.581
REMARK INTRA:                  -0.379
REMARK UNBOUND:                -0.292
REMARK  Name = 14.sdf
REMARK  4 active torsions:
REMARK  status: ('A' for Active; 'I' for Inactive)
REMARK    1  A    between atoms: C_9  and  C_10
REMARK    2  A    between atoms: C_10  and  O_11
REMARK    3  A    between atoms: O_11  and  C_12
REMARK    4  A    between atoms: C_12  and  C_13
REMARK                            x       y       z     vdW  Elec       q    Type
REMARK                         _______ _______ _______ _____ _____    ______ ____
ROOT
ATOM      1  C   UNL     1       3.252  -1.978 -17.653  0.00  0.00    -0.061 A 
ATOM      2  C   UNL     1       4.611  -2.159 -17.884  0.00  0.00    -0.060 A 
ATOM      3  C   UNL     1       5.080  -2.528 -19.148  0.00  0.00    -0.038 A 
ATOM      4  C   UNL     1       4.135  -2.717 -20.166  0.00  0.00    +0.047 A 
ATOM      5  C   UNL     1       2.764  -2.548 -19.969  0.00  0.00    +0.006 A 
ATOM      6  C   UNL     1       2.322  -2.165 -18.683  0.00  0.00    -0.052 A 
ATOM      7  N   UNL     1       4.313  -3.085 -21.479  0.00  0.00    -0.360 N 
ATOM      8  C   UNL     1       3.105  -3.167 -22.116  0.00  0.00    +0.009 A 
ATOM      9  C   UNL     1       2.108  -2.838 -21.212  0.00  0.00    +0.015 A 
ATOM     10  H   UNL     1       5.186  -3.263 -21.900  0.00  0.00    +0.000 HD
ENDROOT
BRANCH   9  11
ATOM     11  C   UNL     1       0.632  -2.799 -21.492  0.00  0.00    +0.119 C 
BRANCH  11  12
ATOM     12  O   UNL     1       0.144  -1.431 -21.647  0.00  0.00    -0.460 OA
BRANCH  12  13
ATOM     13  C   UNL     1      -0.620  -0.900 -20.644  0.00  0.00    +0.304 C 
ATOM     14  C   UNL     1      -0.410   0.579 -20.411  0.00  0.00    +0.033 C 
ATOM     15  O   UNL     1      -1.411  -1.526 -19.966  0.00  0.00    -0.251 OA
ENDBRANCH  12  13
ENDBRANCH  11  12
ENDBRANCH   9  11
TORSDOF 3
ENDMDL
MODEL 3
REMARK VINA RESULT:    -6.514      4.711      6.365
REMARK INTER + INTRA:          -7.948
REMARK INTER:                  -7.697
REMARK INTRA:                  -0.252
REMARK UNBOUND:                -0.292
REMARK  Name = 14.sdf
REMARK  4 active torsions:
REMARK  status: ('A' for Active; 'I' for Inactive)
REMARK    1  A    between atoms: C_9  and  C_10
REMARK    2  A    between atoms: C_10  and  O_11
REMARK    3  A    between atoms: O_11  and  C_12
REMARK    4  A    between atoms: C_12  and  C_13
REMARK                            x       y       z     vdW  Elec       q    Type
REMARK                         _______ _______ _______ _____ _____    ______ ____
ROOT
ATOM      1  C   UNL     1       6.056  -2.751 -20.464  0.00  0.00    -0.061 A 
ATOM      2  C   UNL     1       6.767  -2.319 -19.350  0.00  0.00    -0.060 A 
ATOM      3  C   UNL     1       6.102  -1.874 -18.204  0.00  0.00    -0.038 A 
ATOM      4  C   UNL     1       4.701  -1.871 -18.221  0.00  0.00    +0.047 A 
ATOM      5  C   UNL     1       3.955  -2.294 -19.323  0.00  0.00    +0.006 A 
ATOM      6  C   UNL     1       4.656  -2.748 -20.462  0.00  0.00    -0.052 A 
ATOM      7  N   UNL     1       3.806  -1.483 -17.252  0.00  0.00    -0.360 N 
ATOM      8  C   UNL     1       2.523  -1.632 -17.703  0.00  0.00    +0.009 A 
ATOM      9  C   UNL     1       2.567  -2.139 -18.992  0.00  0.00    +0.015 A 
ATOM     10  H   UNL     1       4.054  -1.146 -16.360  0.00  0.00    +0.000 HD
ENDROOT
BRANCH   9  11
ATOM     11  C   UNL     1       1.384  -2.456 -19.863  0.00  0.00    +0.119 C 
BRANCH  11  12
ATOM     12  O   UNL     1       1.298  -1.555 -21.010  0.00  0.00    -0.460 OA
BRANCH  12  13
ATOM     13  C   UNL     1       0.351  -0.568 -20.987  0.00  0.00    +0.304 C 
ATOM     14  C   UNL     1      -1.059  -1.056 -20.741  0.00  0.00    +0.033 C 
ATOM     15  O   UNL     1       0.575   0.616 -21.152  0.00  0.00    -0.251 OA
ENDBRANCH  12  13
ENDBRANCH  11  12
ENDBRANCH   9  11
TORSDOF 3
ENDMDL
