MODEL 1
REMARK VINA RESULT:    -9.263      0.000      0.000
REMARK INTER + INTRA:         -11.376
REMARK INTER:                 -10.888
REMARK INTRA:                  -0.488
REMARK UNBOUND:                -0.488
REMARK  Name = 17d.sdf
REMARK  3 active torsions:
REMARK  status: ('A' for Active; 'I' for Inactive)
REMARK    1  A    between atoms: C_9  and  C_10
REMARK    2  A    between atoms: N_11  and  N_12
REMARK    3  A    between atoms: C_16  and  C_17
REMARK                            x       y       z     vdW  Elec       q    Type
REMARK                         _______ _______ _______ _____ _____    ______ ____
ROOT
ATOM      1  C   UNL     1       3.946  -2.403 -20.544  0.00  0.00    -0.061 A 
ATOM      2  C   UNL     1       3.281  -1.531 -19.691  0.00  0.00    -0.060 A 
ATOM      3  C   UNL     1       1.896  -1.366 -19.772  0.00  0.00    -0.037 A 
ATOM      4  C   UNL     1       1.185  -2.102 -20.739  0.00  0.00    +0.057 A 
ATOM      5  C   UNL     1       1.838  -2.992 -21.605  0.00  0.00    +0.009 A 
ATOM      6  C   UNL     1       3.239  -3.136 -21.502  0.00  0.00    -0.052 A 
ATOM      7  N   UNL     1      -0.183  -2.172 -21.002  0.00  0.00    -0.282 N 
ATOM      8  C   UNL     1      -0.361  -3.042 -22.060  0.00  0.00    +0.023 A 
ATOM      9  C   UNL     1       0.848  -3.585 -22.440  0.00  0.00    +0.020 A 
ATOM     10  C   UNL     1      -1.231  -1.502 -20.324  0.00  0.00    +0.263 C 
ATOM     11  O   UNL     1      -0.965  -0.468 -19.717  0.00  0.00    -0.267 OA
ENDROOT
BRANCH  10  12
ATOM     12  C   UNL     1      -2.632  -1.999 -20.317  0.00  0.00    +0.040 A 
ATOM     13  C   UNL     1      -3.031  -2.971 -19.389  0.00  0.00    -0.049 A 
ATOM     14  C   UNL     1      -4.331  -3.469 -19.412  0.00  0.00    -0.061 A 
ATOM     15  C   UNL     1      -5.245  -2.972 -20.341  0.00  0.00    -0.062 A 
ATOM     16  C   UNL     1      -4.865  -1.969 -21.234  0.00  0.00    -0.061 A 
ATOM     17  C   UNL     1      -3.560  -1.474 -21.221  0.00  0.00    -0.049 A 
ENDBRANCH  10  12
BRANCH   9  18
ATOM     18  C   UNL     1       1.010  -4.560 -23.498  0.00  0.00    +0.055 C 
ATOM     19  N   UNL     1       1.594  -5.676 -23.203  0.00  0.00    -0.186 NA
BRANCH  19  20
ATOM     20  N   UNL     1       1.731  -6.572 -24.225  0.00  0.00    -0.191 N 
ATOM     21  C   UNL     1       2.911  -7.247 -24.426  0.00  0.00    +0.317 C 
ATOM     22  O   UNL     1       3.053  -8.099 -25.293  0.00  0.00    -0.251 OA
ATOM     23  N   UNL     1       3.914  -6.875 -23.589  0.00  0.00    -0.312 N 
ATOM     24  H   UNL     1       0.970  -6.738 -24.828  0.00  0.00    +0.000 HD
ATOM     25  H   UNL     1       3.753  -6.185 -22.906  0.00  0.00    +0.000 HD
ATOM     26  H   UNL     1       4.799  -7.297 -23.665  0.00  0.00    +0.000 HD
ENDBRANCH  19  20
ENDBRANCH   9  18
TORSDOF 3
ENDMDL
MODEL 2
REMARK VINA RESULT:    -9.034      1.523      2.223
REMARK INTER + INTRA:         -11.106
REMARK INTER:                 -10.788
REMARK INTRA:                  -0.318
REMARK UNBOUND:                -0.488
REMARK  Name = 17d.sdf
REMARK  3 active torsions:
REMARK  status: ('A' for Active; 'I' for Inactive)
REMARK    1  A    between atoms: C_9  and  C_10
REMARK    2  A    between atoms: N_11  and  N_12
REMARK    3  A    between atoms: C_16  and  C_17
REMARK                            x       y       z     vdW  Elec       q    Type
REMARK                         _______ _______ _______ _____ _____    ______ ____
ROOT
ATOM      1  C   UNL     1       5.859  -3.898 -21.861  0.00  0.00    -0.061 A 
ATOM      2  C   UNL     1       5.536  -2.935 -20.913  0.00  0.00    -0.060 A 
ATOM      3  C   UNL     1       4.234  -2.442 -20.805  0.00  0.00    -0.037 A 
ATOM      4  C   UNL     1       3.250  -2.940 -21.680  0.00  0.00    +0.057 A 
ATOM      5  C   UNL     1       3.553  -3.918 -22.640  0.00  0.00    +0.009 A 
ATOM      6  C   UNL     1       4.880  -4.395 -22.727  0.00  0.00    -0.052 A 
ATOM      7  N   UNL     1       1.884  -2.671 -21.758  0.00  0.00    -0.282 N 
ATOM      8  C   UNL     1       1.369  -3.422 -22.797  0.00  0.00    +0.023 A 
ATOM      9  C   UNL     1       2.352  -4.217 -23.344  0.00  0.00    +0.020 A 
ATOM     10  C   UNL     1       1.123  -1.804 -20.935  0.00  0.00    +0.263 C 
ATOM     11  O   UNL     1       1.705  -0.893 -20.352  0.00  0.00    -0.267 OA
ENDROOT
BRANCH  10  12
ATOM     12  C   UNL     1      -0.344  -1.953 -20.747  0.00  0.00    +0.040 A 
ATOM     13  C   UNL     1      -0.893  -3.208 -20.446  0.00  0.00    -0.049 A 
ATOM     14  C   UNL     1      -2.271  -3.355 -20.316  0.00  0.00    -0.061 A 
ATOM     15  C   UNL     1      -3.102  -2.244 -20.454  0.00  0.00    -0.062 A 
ATOM     16  C   UNL     1      -2.555  -0.984 -20.705  0.00  0.00    -0.061 A 
ATOM     17  C   UNL     1      -1.174  -0.833 -20.846  0.00  0.00    -0.049 A 
ENDBRANCH  10  12
BRANCH   9  18
ATOM     18  C   UNL     1       2.139  -5.151 -24.430  0.00  0.00    +0.055 C 
ATOM     19  N   UNL     1       2.052  -6.407 -24.134  0.00  0.00    -0.186 NA
BRANCH  19  20
ATOM     20  N   UNL     1       1.851  -7.260 -25.183  0.00  0.00    -0.191 N 
ATOM     21  C   UNL     1       2.740  -8.272 -25.457  0.00  0.00    +0.317 C 
ATOM     22  O   UNL     1       2.565  -9.089 -26.350  0.00  0.00    -0.251 OA
ATOM     23  N   UNL     1       3.840  -8.276 -24.662  0.00  0.00    -0.312 N 
ATOM     24  H   UNL     1       1.056  -7.147 -25.751  0.00  0.00    +0.000 HD
ATOM     25  H   UNL     1       3.939  -7.598 -23.955  0.00  0.00    +0.000 HD
ATOM     26  H   UNL     1       4.538  -8.958 -24.790  0.00  0.00    +0.000 HD
ENDBRANCH  19  20
ENDBRANCH   9  18
TORSDOF 3
ENDMDL
MODEL 3
REMARK VINA RESULT:    -8.758      4.074      6.356
REMARK INTER + INTRA:         -10.782
REMARK INTER:                 -10.240
REMARK INTRA:                  -0.542
REMARK UNBOUND:                -0.488
REMARK  Name = 17d.sdf
REMARK  3 active torsions:
REMARK  status: ('A' for Active; 'I' for Inactive)
REMARK    1  A    between atoms: C_9  and  C_10
REMARK    2  A    between atoms: N_11  and  N_12
REMARK    3  A    between atoms: C_16  and  C_17
REMARK                            x       y       z     vdW  Elec       q    Type
REMARK                         _______ _______ _______ _____ _____    ______ ____
ROOT
ATOM      1  C   UNL     1       3.504  -1.883 -17.692  0.00  0.00    -0.061 A 
ATOM      2  C   UNL     1       2.228  -2.104 -18.194  0.00  0.00    -0.060 A 
ATOM      3  C   UNL     1       2.039  -2.540 -19.508  0.00  0.00    -0.037 A 
ATOM      4  C   UNL     1       3.172  -2.751 -20.317  0.00  0.00    +0.057 A 
ATOM      5  C   UNL     1       4.470  -2.541 -19.826  0.00  0.00    +0.009 A 
ATOM      6  C   UNL     1       4.628  -2.097 -18.495  0.00  0.00    -0.052 A 
ATOM      7  N   UNL     1       3.279  -3.228 -21.623  0.00  0.00    -0.282 N 
ATOM      8  C   UNL     1       4.620  -3.245 -21.953  0.00  0.00    +0.023 A 
ATOM      9  C   UNL     1       5.382  -2.857 -20.873  0.00  0.00    +0.020 A 
ATOM     10  C   UNL     1       2.232  -3.642 -22.482  0.00  0.00    +0.263 C 
ATOM     11  O   UNL     1       1.103  -3.204 -22.279  0.00  0.00    -0.267 OA
ENDROOT
BRANCH  10  12
ATOM     12  C   UNL     1       2.443  -4.582 -23.615  0.00  0.00    +0.040 A 
ATOM     13  C   UNL     1       2.344  -5.965 -23.411  0.00  0.00    -0.049 A 
ATOM     14  C   UNL     1       2.587  -6.846 -24.462  0.00  0.00    -0.061 A 
ATOM     15  C   UNL     1       2.897  -6.346 -25.726  0.00  0.00    -0.062 A 
ATOM     16  C   UNL     1       2.948  -4.968 -25.944  0.00  0.00    -0.061 A 
ATOM     17  C   UNL     1       2.715  -4.081 -24.891  0.00  0.00    -0.049 A 
ENDBRANCH  10  12
BRANCH   9  18
ATOM     18  C   UNL     1       6.829  -2.798 -20.872  0.00  0.00    +0.055 C 
ATOM     19  N   UNL     1       7.476  -3.898 -20.663  0.00  0.00    -0.186 NA
BRANCH  19  20
ATOM     20  N   UNL     1       8.839  -3.806 -20.669  0.00  0.00    -0.191 N 
ATOM     21  C   UNL     1       9.628  -4.923 -20.810  0.00  0.00    +0.317 C 
ATOM     22  O   UNL     1      10.848  -4.874 -20.877  0.00  0.00    -0.251 OA
ATOM     23  N   UNL     1       8.935  -6.090 -20.853  0.00  0.00    -0.312 N 
ATOM     24  H   UNL     1       9.264  -2.924 -20.569  0.00  0.00    +0.000 HD
ATOM     25  H   UNL     1       7.952  -6.082 -20.795  0.00  0.00    +0.000 HD
ATOM     26  H   UNL     1       9.415  -6.944 -20.942  0.00  0.00    +0.000 HD
ENDBRANCH  19  20
ENDBRANCH   9  18
TORSDOF 3
ENDMDL
