MODEL 1
REMARK VINA RESULT:    -7.979      0.000      0.000
REMARK INTER + INTRA:          -9.151
REMARK INTER:                  -8.912
REMARK INTRA:                  -0.240
REMARK UNBOUND:                -0.240
REMARK  Name = 17e.sdf
REMARK  3 active torsions:
REMARK  status: ('A' for Active; 'I' for Inactive)
REMARK    1  A    between atoms: C_9  and  C_10
REMARK    2  A    between atoms: N_11  and  N_12
REMARK    3  A    between atoms: C_16  and  C_17
REMARK                            x       y       z     vdW  Elec       q    Type
REMARK                         _______ _______ _______ _____ _____    ______ ____
ROOT
ATOM      1  C   UNL     1       3.855  -1.778 -17.480  0.00  0.00    -0.061 A 
ATOM      2  C   UNL     1       4.914  -2.334 -18.182  0.00  0.00    -0.060 A 
ATOM      3  C   UNL     1       4.743  -2.784 -19.495  0.00  0.00    -0.037 A 
ATOM      4  C   UNL     1       3.475  -2.664 -20.101  0.00  0.00    +0.057 A 
ATOM      5  C   UNL     1       2.396  -2.102 -19.404  0.00  0.00    +0.009 A 
ATOM      6  C   UNL     1       2.597  -1.656 -18.077  0.00  0.00    -0.052 A 
ATOM      7  N   UNL     1       3.032  -3.027 -21.383  0.00  0.00    -0.287 N 
ATOM      8  C   UNL     1       1.694  -2.686 -21.456  0.00  0.00    +0.022 A 
ATOM      9  C   UNL     1       1.270  -2.119 -20.270  0.00  0.00    +0.020 A 
ATOM     10  C   UNL     1       3.823  -3.628 -22.394  0.00  0.00    +0.229 C 
ATOM     11  C   UNL     1       3.176  -3.945 -23.709  0.00  0.00    +0.015 C 
ATOM     12  O   UNL     1       5.008  -3.877 -22.181  0.00  0.00    -0.273 OA
ENDROOT
BRANCH   9  13
ATOM     13  C   UNL     1      -0.077  -1.648 -20.011  0.00  0.00    +0.055 C 
ATOM     14  N   UNL     1      -0.967  -1.831 -20.934  0.00  0.00    -0.186 NA
BRANCH  14  15
ATOM     15  N   UNL     1      -2.227  -1.376 -20.662  0.00  0.00    -0.191 N 
ATOM     16  C   UNL     1      -3.314  -2.217 -20.720  0.00  0.00    +0.317 C 
ATOM     17  O   UNL     1      -4.457  -1.851 -20.482  0.00  0.00    -0.251 OA
ATOM     18  N   UNL     1      -3.013  -3.494 -21.062  0.00  0.00    -0.312 N 
ATOM     19  H   UNL     1      -2.360  -0.431 -20.422  0.00  0.00    +0.000 HD
ATOM     20  H   UNL     1      -2.080  -3.747 -21.245  0.00  0.00    +0.000 HD
ATOM     21  H   UNL     1      -3.727  -4.167 -21.127  0.00  0.00    +0.000 HD
ENDBRANCH  14  15
ENDBRANCH   9  13
TORSDOF 2
ENDMDL
MODEL 2
REMARK VINA RESULT:    -7.607      1.555      3.614
REMARK INTER + INTRA:          -8.736
REMARK INTER:                  -8.515
REMARK INTRA:                  -0.221
REMARK UNBOUND:                -0.240
REMARK  Name = 17e.sdf
REMARK  3 active torsions:
REMARK  status: ('A' for Active; 'I' for Inactive)
REMARK    1  A    between atoms: C_9  and  C_10
REMARK    2  A    between atoms: N_11  and  N_12
REMARK    3  A    between atoms: C_16  and  C_17
REMARK                            x       y       z     vdW  Elec       q    Type
REMARK                         _______ _______ _______ _____ _____    ______ ____
ROOT
ATOM      1  C   UNL     1       2.875  -4.259 -24.047  0.00  0.00    -0.061 A 
ATOM      2  C   UNL     1       4.004  -3.803 -23.384  0.00  0.00    -0.060 A 
ATOM      3  C   UNL     1       3.908  -3.264 -22.098  0.00  0.00    -0.037 A 
ATOM      4  C   UNL     1       2.642  -3.189 -21.479  0.00  0.00    +0.057 A 
ATOM      5  C   UNL     1       1.493  -3.648 -22.137  0.00  0.00    +0.009 A 
ATOM      6  C   UNL     1       1.619  -4.189 -23.437  0.00  0.00    -0.052 A 
ATOM      7  N   UNL     1       2.266  -2.703 -20.216  0.00  0.00    -0.287 N 
ATOM      8  C   UNL     1       0.897  -2.868 -20.117  0.00  0.00    +0.022 A 
ATOM      9  C   UNL     1       0.389  -3.441 -21.266  0.00  0.00    +0.020 A 
ATOM     10  C   UNL     1       3.139  -2.151 -19.246  0.00  0.00    +0.229 C 
ATOM     11  C   UNL     1       2.553  -1.683 -17.947  0.00  0.00    +0.015 C 
ATOM     12  O   UNL     1       4.343  -2.065 -19.479  0.00  0.00    -0.273 OA
ENDROOT
BRANCH   9  13
ATOM     13  C   UNL     1      -1.010  -3.753 -21.490  0.00  0.00    +0.055 C 
ATOM     14  N   UNL     1      -1.882  -3.205 -20.705  0.00  0.00    -0.186 NA
BRANCH  14  15
ATOM     15  N   UNL     1      -3.192  -3.517 -20.940  0.00  0.00    -0.191 N 
ATOM     16  C   UNL     1      -4.179  -3.148 -20.057  0.00  0.00    +0.317 C 
ATOM     17  O   UNL     1      -5.363  -3.404 -20.231  0.00  0.00    -0.251 OA
ATOM     18  N   UNL     1      -3.731  -2.469 -18.972  0.00  0.00    -0.312 N 
ATOM     19  H   UNL     1      -3.433  -4.015 -21.754  0.00  0.00    +0.000 HD
ATOM     20  H   UNL     1      -2.770  -2.283 -18.870  0.00  0.00    +0.000 HD
ATOM     21  H   UNL     1      -4.368  -2.163 -18.287  0.00  0.00    +0.000 HD
ENDBRANCH  14  15
ENDBRANCH   9  13
TORSDOF 2
ENDMDL
MODEL 3
REMARK VINA RESULT:    -7.580      4.123      5.351
REMARK INTER + INTRA:          -8.706
REMARK INTER:                  -8.463
REMARK INTRA:                  -0.243
REMARK UNBOUND:                -0.240
REMARK  Name = 17e.sdf
REMARK  3 active torsions:
REMARK  status: ('A' for Active; 'I' for Inactive)
REMARK    1  A    between atoms: C_9  and  C_10
REMARK    2  A    between atoms: N_11  and  N_12
REMARK    3  A    between atoms: C_16  and  C_17
REMARK                            x       y       z     vdW  Elec       q    Type
REMARK                         _______ _______ _______ _____ _____    ______ ____
ROOT
ATOM      1  C   UNL     1       1.386  -2.303 -19.715  0.00  0.00    -0.061 A 
ATOM      2  C   UNL     1       2.146  -1.910 -18.623  0.00  0.00    -0.060 A 
ATOM      3  C   UNL     1       3.542  -1.948 -18.676  0.00  0.00    -0.037 A 
ATOM      4  C   UNL     1       4.173  -2.390 -19.857  0.00  0.00    +0.057 A 
ATOM      5  C   UNL     1       3.417  -2.790 -20.968  0.00  0.00    +0.009 A 
ATOM      6  C   UNL     1       2.006  -2.742 -20.888  0.00  0.00    -0.052 A 
ATOM      7  N   UNL     1       5.534  -2.525 -20.176  0.00  0.00    -0.287 N 
ATOM      8  C   UNL     1       5.595  -3.003 -21.473  0.00  0.00    +0.022 A 
ATOM      9  C   UNL     1       4.326  -3.176 -21.990  0.00  0.00    +0.020 A 
ATOM     10  C   UNL     1       6.620  -2.224 -19.319  0.00  0.00    +0.229 C 
ATOM     11  C   UNL     1       8.013  -2.430 -19.835  0.00  0.00    +0.015 C 
ATOM     12  O   UNL     1       6.410  -1.806 -18.181  0.00  0.00    -0.273 OA
ENDROOT
BRANCH   9  13
ATOM     13  C   UNL     1       4.033  -3.661 -23.325  0.00  0.00    +0.055 C 
ATOM     14  N   UNL     1       3.463  -4.818 -23.433  0.00  0.00    -0.186 NA
BRANCH  14  15
ATOM     15  N   UNL     1       3.199  -5.250 -24.703  0.00  0.00    -0.191 N 
ATOM     16  C   UNL     1       2.758  -6.530 -24.941  0.00  0.00    +0.317 C 
ATOM     17  O   UNL     1       2.507  -6.955 -26.061  0.00  0.00    -0.251 OA
ATOM     18  N   UNL     1       2.620  -7.289 -23.825  0.00  0.00    -0.312 N 
ATOM     19  H   UNL     1       3.327  -4.635 -25.460  0.00  0.00    +0.000 HD
ATOM     20  H   UNL     1       2.831  -6.908 -22.942  0.00  0.00    +0.000 HD
ATOM     21  H   UNL     1       2.306  -8.218 -23.899  0.00  0.00    +0.000 HD
ENDBRANCH  14  15
ENDBRANCH   9  13
TORSDOF 2
ENDMDL
