MODEL 1
REMARK VINA RESULT:    -9.056      0.000      0.000
REMARK INTER + INTRA:         -12.572
REMARK INTER:                 -11.703
REMARK INTRA:                  -0.868
REMARK UNBOUND:                -0.868
REMARK  Name = 17i.sdf
REMARK  6 active torsions:
REMARK  status: ('A' for Active; 'I' for Inactive)
REMARK    1  A    between atoms: N_7  and  C_16
REMARK    2  A    between atoms: C_9  and  C_10
REMARK    3  A    between atoms: N_11  and  N_12
REMARK    4  A    between atoms: C_16  and  C_17
REMARK    5  A    between atoms: C_19  and  O_23
REMARK    6  A    between atoms: O_23  and  C_24
REMARK                            x       y       z     vdW  Elec       q    Type
REMARK                         _______ _______ _______ _____ _____    ______ ____
ROOT
ATOM      1  C   UNL     1       1.854  -4.884 -23.924  0.00  0.00    -0.061 A 
ATOM      2  C   UNL     1       3.086  -4.281 -23.691  0.00  0.00    -0.060 A 
ATOM      3  C   UNL     1       3.274  -3.425 -22.604  0.00  0.00    -0.038 A 
ATOM      4  C   UNL     1       2.184  -3.186 -21.749  0.00  0.00    +0.050 A 
ATOM      5  C   UNL     1       0.948  -3.818 -21.937  0.00  0.00    +0.009 A 
ATOM      6  C   UNL     1       0.784  -4.672 -23.049  0.00  0.00    -0.052 A 
ATOM      7  N   UNL     1       2.049  -2.350 -20.658  0.00  0.00    -0.342 N 
ATOM      8  C   UNL     1       0.790  -2.481 -20.128  0.00  0.00    +0.015 A 
ATOM      9  C   UNL     1       0.088  -3.410 -20.870  0.00  0.00    +0.020 A 
ENDROOT
BRANCH   9  10
ATOM     10  C   UNL     1      -1.264  -3.853 -20.604  0.00  0.00    +0.055 C 
ATOM     11  N   UNL     1      -2.155  -2.972 -20.285  0.00  0.00    -0.186 NA
BRANCH  11  12
ATOM     12  N   UNL     1      -3.403  -3.473 -20.017  0.00  0.00    -0.191 N 
ATOM     13  C   UNL     1      -4.529  -2.912 -20.564  0.00  0.00    +0.317 C 
ATOM     14  O   UNL     1      -5.665  -3.291 -20.296  0.00  0.00    -0.251 OA
ATOM     15  N   UNL     1      -4.281  -1.904 -21.435  0.00  0.00    -0.312 N 
ATOM     16  H   UNL     1      -3.492  -4.250 -19.419  0.00  0.00    +0.000 HD
ATOM     17  H   UNL     1      -3.354  -1.632 -21.621  0.00  0.00    +0.000 HD
ATOM     18  H   UNL     1      -5.029  -1.444 -21.880  0.00  0.00    +0.000 HD
ENDBRANCH  11  12
ENDBRANCH   9  10
BRANCH   7  19
ATOM     19  C   UNL     1       2.988  -1.303 -20.260  0.00  0.00    +0.048 C 
BRANCH  19  20
ATOM     20  C   UNL     1       4.263  -1.800 -19.622  0.00  0.00    -0.024 A 
ATOM     21  C   UNL     1       5.512  -1.611 -20.243  0.00  0.00    -0.015 A 
ATOM     22  C   UNL     1       6.656  -2.260 -19.768  0.00  0.00    +0.120 A 
ATOM     23  C   UNL     1       6.564  -3.062 -18.630  0.00  0.00    -0.020 A 
ATOM     24  C   UNL     1       5.344  -3.227 -17.978  0.00  0.00    -0.058 A 
ATOM     25  C   UNL     1       4.198  -2.608 -18.476  0.00  0.00    -0.057 A 
BRANCH  22  26
ATOM     26  O   UNL     1       7.897  -2.217 -20.342  0.00  0.00    -0.495 OA
ATOM     27  C   UNL     1       9.007  -2.517 -19.505  0.00  0.00    +0.079 C 
ENDBRANCH  22  26
ENDBRANCH  19  20
ENDBRANCH   7  19
TORSDOF 5
ENDMDL
MODEL 2
REMARK VINA RESULT:    -8.826      2.959      7.960
REMARK INTER + INTRA:         -12.274
REMARK INTER:                 -11.568
REMARK INTRA:                  -0.706
REMARK UNBOUND:                -0.868
REMARK  Name = 17i.sdf
REMARK  6 active torsions:
REMARK  status: ('A' for Active; 'I' for Inactive)
REMARK    1  A    between atoms: N_7  and  C_16
REMARK    2  A    between atoms: C_9  and  C_10
REMARK    3  A    between atoms: N_11  and  N_12
REMARK    4  A    between atoms: C_16  and  C_17
REMARK    5  A    between atoms: C_19  and  O_23
REMARK    6  A    between atoms: O_23  and  C_24
REMARK                            x       y       z     vdW  Elec       q    Type
REMARK                         _______ _______ _______ _____ _____    ______ ____
ROOT
ATOM      1  C   UNL     1       3.884  -2.417 -20.250  0.00  0.00    -0.061 A 
ATOM      2  C   UNL     1       3.159  -1.730 -19.281  0.00  0.00    -0.060 A 
ATOM      3  C   UNL     1       1.765  -1.663 -19.337  0.00  0.00    -0.038 A 
ATOM      4  C   UNL     1       1.111  -2.307 -20.402  0.00  0.00    +0.050 A 
ATOM      5  C   UNL     1       1.816  -3.042 -21.363  0.00  0.00    +0.009 A 
ATOM      6  C   UNL     1       3.225  -3.086 -21.285  0.00  0.00    -0.052 A 
ATOM      7  N   UNL     1      -0.224  -2.353 -20.755  0.00  0.00    -0.342 N 
ATOM      8  C   UNL     1      -0.379  -3.137 -21.871  0.00  0.00    +0.015 A 
ATOM      9  C   UNL     1       0.858  -3.614 -22.257  0.00  0.00    +0.020 A 
ENDROOT
BRANCH   9  10
ATOM     10  C   UNL     1       1.106  -4.507 -23.368  0.00  0.00    +0.055 C 
ATOM     11  N   UNL     1       1.411  -5.739 -23.121  0.00  0.00    -0.186 NA
BRANCH  11  12
ATOM     12  N   UNL     1       1.662  -6.512 -24.225  0.00  0.00    -0.191 N 
ATOM     13  C   UNL     1       2.905  -7.047 -24.453  0.00  0.00    +0.317 C 
ATOM     14  O   UNL     1       3.183  -7.688 -25.462  0.00  0.00    -0.251 OA
ATOM     15  N   UNL     1       3.801  -6.812 -23.466  0.00  0.00    -0.312 N 
ATOM     16  H   UNL     1       0.935  -6.688 -24.866  0.00  0.00    +0.000 HD
ATOM     17  H   UNL     1       3.535  -6.292 -22.673  0.00  0.00    +0.000 HD
ATOM     18  H   UNL     1       4.719  -7.160 -23.541  0.00  0.00    +0.000 HD
ENDBRANCH  11  12
ENDBRANCH   9  10
BRANCH   7  19
ATOM     19  C   UNL     1      -1.286  -1.515 -20.202  0.00  0.00    +0.048 C 
BRANCH  19  20
ATOM     20  C   UNL     1      -2.663  -2.132 -20.230  0.00  0.00    -0.024 A 
ATOM     21  C   UNL     1      -3.652  -1.673 -21.121  0.00  0.00    -0.015 A 
ATOM     22  C   UNL     1      -4.981  -2.088 -20.995  0.00  0.00    +0.120 A 
ATOM     23  C   UNL     1      -5.318  -3.011 -20.004  0.00  0.00    -0.020 A 
ATOM     24  C   UNL     1      -4.345  -3.507 -19.139  0.00  0.00    -0.058 A 
ATOM     25  C   UNL     1      -3.027  -3.064 -19.244  0.00  0.00    -0.057 A 
BRANCH  22  26
ATOM     26  O   UNL     1      -6.033  -1.641 -21.747  0.00  0.00    -0.495 OA
ATOM     27  C   UNL     1      -6.422  -2.445 -22.854  0.00  0.00    +0.079 C 
ENDBRANCH  22  26
ENDBRANCH  19  20
ENDBRANCH   7  19
TORSDOF 5
ENDMDL
MODEL 3
REMARK VINA RESULT:    -8.676      2.366      4.011
REMARK INTER + INTRA:         -12.081
REMARK INTER:                 -11.162
REMARK INTRA:                  -0.919
REMARK UNBOUND:                -0.868
REMARK  Name = 17i.sdf
REMARK  6 active torsions:
REMARK  status: ('A' for Active; 'I' for Inactive)
REMARK    1  A    between atoms: N_7  and  C_16
REMARK    2  A    between atoms: C_9  and  C_10
REMARK    3  A    between atoms: N_11  and  N_12
REMARK    4  A    between atoms: C_16  and  C_17
REMARK    5  A    between atoms: C_19  and  O_23
REMARK    6  A    between atoms: O_23  and  C_24
REMARK                            x       y       z     vdW  Elec       q    Type
REMARK                         _______ _______ _______ _____ _____    ______ ____
ROOT
ATOM      1  C   UNL     1       3.746  -2.225 -17.677  0.00  0.00    -0.061 A 
ATOM      2  C   UNL     1       4.920  -2.039 -18.399  0.00  0.00    -0.060 A 
ATOM      3  C   UNL     1       4.952  -2.226 -19.783  0.00  0.00    -0.038 A 
ATOM      4  C   UNL     1       3.765  -2.611 -20.429  0.00  0.00    +0.050 A 
ATOM      5  C   UNL     1       2.560  -2.760 -19.730  0.00  0.00    +0.009 A 
ATOM      6  C   UNL     1       2.559  -2.572 -18.331  0.00  0.00    -0.052 A 
ATOM      7  N   UNL     1       3.511  -2.933 -21.748  0.00  0.00    -0.342 N 
ATOM      8  C   UNL     1       2.178  -3.224 -21.904  0.00  0.00    +0.015 A 
ATOM      9  C   UNL     1       1.547  -3.091 -20.682  0.00  0.00    +0.020 A 
ENDROOT
BRANCH   9  10
ATOM     10  C   UNL     1       0.132  -3.275 -20.442  0.00  0.00    +0.055 C 
ATOM     11  N   UNL     1      -0.713  -2.641 -21.187  0.00  0.00    -0.186 NA
BRANCH  11  12
ATOM     12  N   UNL     1      -2.033  -2.843 -20.877  0.00  0.00    -0.191 N 
ATOM     13  C   UNL     1      -2.875  -1.791 -20.619  0.00  0.00    +0.317 C 
ATOM     14  O   UNL     1      -4.044  -1.936 -20.274  0.00  0.00    -0.251 OA
ATOM     15  N   UNL     1      -2.308  -0.572 -20.783  0.00  0.00    -0.312 N 
ATOM     16  H   UNL     1      -2.384  -3.762 -20.839  0.00  0.00    +0.000 HD
ATOM     17  H   UNL     1      -1.366  -0.501 -21.061  0.00  0.00    +0.000 HD
ATOM     18  H   UNL     1      -2.837   0.242 -20.623  0.00  0.00    +0.000 HD
ENDBRANCH  11  12
ENDBRANCH   9  10
BRANCH   7  19
ATOM     19  C   UNL     1       4.517  -3.177 -22.780  0.00  0.00    +0.048 C 
BRANCH  19  20
ATOM     20  C   UNL     1       5.126  -4.559 -22.761  0.00  0.00    -0.024 A 
ATOM     21  C   UNL     1       6.359  -4.805 -22.128  0.00  0.00    -0.015 A 
ATOM     22  C   UNL     1       7.024  -6.023 -22.300  0.00  0.00    +0.120 A 
ATOM     23  C   UNL     1       6.429  -7.024 -23.068  0.00  0.00    -0.020 A 
ATOM     24  C   UNL     1       5.190  -6.813 -23.668  0.00  0.00    -0.058 A 
ATOM     25  C   UNL     1       4.545  -5.585 -23.524  0.00  0.00    -0.057 A 
BRANCH  22  26
ATOM     26  O   UNL     1       8.261  -6.335 -21.806  0.00  0.00    -0.495 OA
ATOM     27  C   UNL     1       8.816  -5.445 -20.845  0.00  0.00    +0.079 C 
ENDBRANCH  22  26
ENDBRANCH  19  20
ENDBRANCH   7  19
TORSDOF 5
ENDMDL
