MODEL 1
REMARK VINA RESULT:    -9.107      0.000      0.000
REMARK INTER + INTRA:         -13.031
REMARK INTER:                 -12.301
REMARK INTRA:                  -0.730
REMARK UNBOUND:                -0.730
REMARK  Name = 17j.sdf
REMARK  8 active torsions:
REMARK  status: ('A' for Active; 'I' for Inactive)
REMARK    1  A    between atoms: N_7  and  C_16
REMARK    2  A    between atoms: C_9  and  C_10
REMARK    3  A    between atoms: N_11  and  N_12
REMARK    4  A    between atoms: C_16  and  C_17
REMARK    5  A    between atoms: C_19  and  O_23
REMARK    6  A    between atoms: C_21  and  O_25
REMARK    7  A    between atoms: O_23  and  C_24
REMARK    8  A    between atoms: O_25  and  C_26
REMARK                            x       y       z     vdW  Elec       q    Type
REMARK                         _______ _______ _______ _____ _____    ______ ____
ROOT
ATOM      1  C   UNL     1       4.018  -2.496 -20.349  0.00  0.00    -0.061 A 
ATOM      2  C   UNL     1       3.378  -1.719 -19.390  0.00  0.00    -0.060 A 
ATOM      3  C   UNL     1       1.993  -1.528 -19.425  0.00  0.00    -0.038 A 
ATOM      4  C   UNL     1       1.264  -2.140 -20.458  0.00  0.00    +0.050 A 
ATOM      5  C   UNL     1       1.881  -2.963 -21.410  0.00  0.00    +0.009 A 
ATOM      6  C   UNL     1       3.283  -3.132 -21.353  0.00  0.00    -0.052 A 
ATOM      7  N   UNL     1      -0.080  -2.099 -20.772  0.00  0.00    -0.342 N 
ATOM      8  C   UNL     1      -0.334  -2.919 -21.842  0.00  0.00    +0.015 A 
ATOM      9  C   UNL     1       0.857  -3.480 -22.264  0.00  0.00    +0.020 A 
ENDROOT
BRANCH   9  10
ATOM     10  C   UNL     1       1.008  -4.416 -23.359  0.00  0.00    +0.055 C 
ATOM     11  N   UNL     1       1.459  -5.603 -23.113  0.00  0.00    -0.186 NA
BRANCH  11  12
ATOM     12  N   UNL     1       1.587  -6.418 -24.206  0.00  0.00    -0.191 N 
ATOM     13  C   UNL     1       2.744  -7.114 -24.451  0.00  0.00    +0.317 C 
ATOM     14  O   UNL     1       2.883  -7.866 -25.409  0.00  0.00    -0.251 OA
ATOM     15  N   UNL     1       3.720  -6.905 -23.532  0.00  0.00    -0.312 N 
ATOM     16  H   UNL     1       0.831  -6.507 -24.830  0.00  0.00    +0.000 HD
ATOM     17  H   UNL     1       3.563  -6.291 -22.780  0.00  0.00    +0.000 HD
ATOM     18  H   UNL     1       4.585  -7.367 -23.620  0.00  0.00    +0.000 HD
ENDBRANCH  11  12
ENDBRANCH   9  10
BRANCH   7  19
ATOM     19  C   UNL     1      -1.097  -1.273 -20.118  0.00  0.00    +0.049 C 
BRANCH  19  20
ATOM     20  C   UNL     1      -2.499  -1.842 -20.153  0.00  0.00    -0.021 A 
ATOM     21  C   UNL     1      -3.440  -1.509 -21.138  0.00  0.00    -0.015 A 
ATOM     22  C   UNL     1      -4.748  -1.994 -21.076  0.00  0.00    +0.124 A 
ATOM     23  C   UNL     1      -5.114  -2.867 -20.049  0.00  0.00    +0.022 A 
ATOM     24  C   UNL     1      -4.186  -3.252 -19.083  0.00  0.00    +0.124 A 
ATOM     25  C   UNL     1      -2.887  -2.738 -19.141  0.00  0.00    -0.015 A 
BRANCH  22  26
ATOM     26  O   UNL     1      -5.753  -1.679 -21.951  0.00  0.00    -0.495 OA
ATOM     27  C   UNL     1      -6.231  -2.736 -22.776  0.00  0.00    +0.079 C 
ENDBRANCH  22  26
BRANCH  24  28
ATOM     28  O   UNL     1      -4.420  -4.108 -18.041  0.00  0.00    -0.495 OA
ATOM     29  C   UNL     1      -4.655  -3.517 -16.767  0.00  0.00    +0.079 C 
ENDBRANCH  24  28
ENDBRANCH  19  20
ENDBRANCH   7  19
TORSDOF 6
ENDMDL
MODEL 2
REMARK VINA RESULT:    -8.896      2.728      8.187
REMARK INTER + INTRA:         -12.746
REMARK INTER:                 -11.740
REMARK INTRA:                  -1.006
REMARK UNBOUND:                -0.730
REMARK  Name = 17j.sdf
REMARK  8 active torsions:
REMARK  status: ('A' for Active; 'I' for Inactive)
REMARK    1  A    between atoms: N_7  and  C_16
REMARK    2  A    between atoms: C_9  and  C_10
REMARK    3  A    between atoms: N_11  and  N_12
REMARK    4  A    between atoms: C_16  and  C_17
REMARK    5  A    between atoms: C_19  and  O_23
REMARK    6  A    between atoms: C_21  and  O_25
REMARK    7  A    between atoms: O_23  and  C_24
REMARK    8  A    between atoms: O_25  and  C_26
REMARK                            x       y       z     vdW  Elec       q    Type
REMARK                         _______ _______ _______ _____ _____    ______ ____
ROOT
ATOM      1  C   UNL     1       3.787  -2.246 -17.763  0.00  0.00    -0.061 A 
ATOM      2  C   UNL     1       4.957  -2.097 -18.499  0.00  0.00    -0.060 A 
ATOM      3  C   UNL     1       4.974  -2.324 -19.879  0.00  0.00    -0.038 A 
ATOM      4  C   UNL     1       3.775  -2.711 -20.502  0.00  0.00    +0.050 A 
ATOM      5  C   UNL     1       2.575  -2.825 -19.789  0.00  0.00    +0.009 A 
ATOM      6  C   UNL     1       2.591  -2.596 -18.394  0.00  0.00    -0.052 A 
ATOM      7  N   UNL     1       3.496  -3.040 -21.814  0.00  0.00    -0.342 N 
ATOM      8  C   UNL     1       2.155  -3.289 -21.957  0.00  0.00    +0.015 A 
ATOM      9  C   UNL     1       1.545  -3.159 -20.724  0.00  0.00    +0.020 A 
ENDROOT
BRANCH   9  10
ATOM     10  C   UNL     1       0.132  -3.327 -20.459  0.00  0.00    +0.055 C 
ATOM     11  N   UNL     1      -0.726  -2.729 -21.222  0.00  0.00    -0.186 NA
BRANCH  11  12
ATOM     12  N   UNL     1      -2.040  -2.927 -20.891  0.00  0.00    -0.191 N 
ATOM     13  C   UNL     1      -2.897  -1.874 -20.689  0.00  0.00    +0.317 C 
ATOM     14  O   UNL     1      -4.081  -2.018 -20.413  0.00  0.00    -0.251 OA
ATOM     15  N   UNL     1      -2.317  -0.656 -20.834  0.00  0.00    -0.312 N 
ATOM     16  H   UNL     1      -2.378  -3.847 -20.798  0.00  0.00    +0.000 HD
ATOM     17  H   UNL     1      -1.361  -0.589 -21.056  0.00  0.00    +0.000 HD
ATOM     18  H   UNL     1      -2.854   0.161 -20.715  0.00  0.00    +0.000 HD
ENDBRANCH  11  12
ENDBRANCH   9  10
BRANCH   7  19
ATOM     19  C   UNL     1       4.471  -3.169 -22.900  0.00  0.00    +0.049 C 
BRANCH  19  20
ATOM     20  C   UNL     1       5.101  -4.538 -23.030  0.00  0.00    -0.021 A 
ATOM     21  C   UNL     1       4.578  -5.552 -23.846  0.00  0.00    -0.015 A 
ATOM     22  C   UNL     1       5.148  -6.826 -23.864  0.00  0.00    +0.124 A 
ATOM     23  C   UNL     1       6.289  -7.086 -23.101  0.00  0.00    +0.022 A 
ATOM     24  C   UNL     1       6.857  -6.083 -22.318  0.00  0.00    +0.124 A 
ATOM     25  C   UNL     1       6.261  -4.819 -22.287  0.00  0.00    -0.015 A 
BRANCH  22  26
ATOM     26  O   UNL     1       4.676  -7.896 -24.577  0.00  0.00    -0.495 OA
ATOM     27  C   UNL     1       3.327  -7.816 -25.024  0.00  0.00    +0.079 C 
ENDBRANCH  22  26
BRANCH  24  28
ATOM     28  O   UNL     1       7.978  -6.210 -21.541  0.00  0.00    -0.495 OA
ATOM     29  C   UNL     1       8.022  -5.432 -20.349  0.00  0.00    +0.079 C 
ENDBRANCH  24  28
ENDBRANCH  19  20
ENDBRANCH   7  19
TORSDOF 6
ENDMDL
MODEL 3
REMARK VINA RESULT:    -8.825      3.090      8.638
REMARK INTER + INTRA:         -12.650
REMARK INTER:                 -11.640
REMARK INTRA:                  -1.010
REMARK UNBOUND:                -0.730
REMARK  Name = 17j.sdf
REMARK  8 active torsions:
REMARK  status: ('A' for Active; 'I' for Inactive)
REMARK    1  A    between atoms: N_7  and  C_16
REMARK    2  A    between atoms: C_9  and  C_10
REMARK    3  A    between atoms: N_11  and  N_12
REMARK    4  A    between atoms: C_16  and  C_17
REMARK    5  A    between atoms: C_19  and  O_23
REMARK    6  A    between atoms: C_21  and  O_25
REMARK    7  A    between atoms: O_23  and  C_24
REMARK    8  A    between atoms: O_25  and  C_26
REMARK                            x       y       z     vdW  Elec       q    Type
REMARK                         _______ _______ _______ _____ _____    ______ ____
ROOT
ATOM      1  C   UNL     1       3.694  -1.877 -17.501  0.00  0.00    -0.061 A 
ATOM      2  C   UNL     1       4.902  -1.689 -18.163  0.00  0.00    -0.060 A 
ATOM      3  C   UNL     1       5.027  -1.969 -19.528  0.00  0.00    -0.038 A 
ATOM      4  C   UNL     1       3.898  -2.449 -20.213  0.00  0.00    +0.050 A 
ATOM      5  C   UNL     1       2.659  -2.605 -19.577  0.00  0.00    +0.009 A 
ATOM      6  C   UNL     1       2.565  -2.321 -18.196  0.00  0.00    -0.052 A 
ATOM      7  N   UNL     1       3.729  -2.845 -21.525  0.00  0.00    -0.342 N 
ATOM      8  C   UNL     1       2.417  -3.178 -21.747  0.00  0.00    +0.015 A 
ATOM      9  C   UNL     1       1.717  -3.035 -20.564  0.00  0.00    +0.020 A 
ENDROOT
BRANCH   9  10
ATOM     10  C   UNL     1       0.300  -3.275 -20.387  0.00  0.00    +0.055 C 
ATOM     11  N   UNL     1      -0.540  -2.681 -21.171  0.00  0.00    -0.186 NA
BRANCH  11  12
ATOM     12  N   UNL     1      -1.861  -2.949 -20.925  0.00  0.00    -0.191 N 
ATOM     13  C   UNL     1      -2.770  -1.944 -20.709  0.00  0.00    +0.317 C 
ATOM     14  O   UNL     1      -3.960  -2.151 -20.507  0.00  0.00    -0.251 OA
ATOM     15  N   UNL     1      -2.236  -0.698 -20.752  0.00  0.00    -0.312 N 
ATOM     16  H   UNL     1      -2.164  -3.885 -20.903  0.00  0.00    +0.000 HD
ATOM     17  H   UNL     1      -1.273  -0.581 -20.917  0.00  0.00    +0.000 HD
ATOM     18  H   UNL     1      -2.812   0.089 -20.615  0.00  0.00    +0.000 HD
ENDBRANCH  11  12
ENDBRANCH   9  10
BRANCH   7  19
ATOM     19  C   UNL     1       4.782  -2.959 -22.537  0.00  0.00    +0.049 C 
BRANCH  19  20
ATOM     20  C   UNL     1       5.522  -4.279 -22.540  0.00  0.00    -0.021 A 
ATOM     21  C   UNL     1       6.662  -4.524 -21.762  0.00  0.00    -0.015 A 
ATOM     22  C   UNL     1       7.359  -5.729 -21.866  0.00  0.00    +0.124 A 
ATOM     23  C   UNL     1       6.886  -6.731 -22.718  0.00  0.00    +0.022 A 
ATOM     24  C   UNL     1       5.729  -6.532 -23.468  0.00  0.00    +0.124 A 
ATOM     25  C   UNL     1       5.055  -5.310 -23.375  0.00  0.00    -0.015 A 
BRANCH  22  26
ATOM     26  O   UNL     1       8.513  -6.039 -21.197  0.00  0.00    -0.495 OA
ATOM     27  C   UNL     1       9.566  -6.602 -21.972  0.00  0.00    +0.079 C 
ENDBRANCH  22  26
BRANCH  24  28
ATOM     28  O   UNL     1       5.162  -7.438 -24.323  0.00  0.00    -0.495 OA
ATOM     29  C   UNL     1       3.771  -7.283 -24.590  0.00  0.00    +0.079 C 
ENDBRANCH  24  28
ENDBRANCH  19  20
ENDBRANCH   7  19
TORSDOF 6
ENDMDL
