MODEL 1
REMARK VINA RESULT:    -9.696      0.000      0.000
REMARK INTER + INTRA:         -13.203
REMARK INTER:                 -12.530
REMARK INTRA:                  -0.673
REMARK UNBOUND:                -0.673
REMARK  Name = 18c.sdf
REMARK  5 active torsions:
REMARK  status: ('A' for Active; 'I' for Inactive)
REMARK    1  A    between atoms: N_7  and  C_12
REMARK    2  A    between atoms: C_9  and  C_10
REMARK    3  A    between atoms: N_11  and  N_19
REMARK    4  A    between atoms: C_12  and  C_13
REMARK    5  A    between atoms: C_20  and  C_22
REMARK                            x       y       z     vdW  Elec       q    Type
REMARK                         _______ _______ _______ _____ _____    ______ ____
ROOT
ATOM      1  C   UNL     1       5.813  -2.032 -18.214  0.00  0.00    -0.061 A 
ATOM      2  C   UNL     1       6.863  -2.165 -19.114  0.00  0.00    -0.060 A 
ATOM      3  C   UNL     1       6.629  -2.526 -20.445  0.00  0.00    -0.038 A 
ATOM      4  C   UNL     1       5.303  -2.749 -20.855  0.00  0.00    +0.050 A 
ATOM      5  C   UNL     1       4.225  -2.571 -19.976  0.00  0.00    +0.009 A 
ATOM      6  C   UNL     1       4.494  -2.221 -18.634  0.00  0.00    -0.052 A 
ATOM      7  N   UNL     1       4.771  -3.163 -22.063  0.00  0.00    -0.342 N 
ATOM      8  C   UNL     1       3.400  -3.164 -21.990  0.00  0.00    +0.015 A 
ATOM      9  C   UNL     1       3.022  -2.797 -20.714  0.00  0.00    +0.020 A 
ENDROOT
BRANCH   9  10
ATOM     10  C   UNL     1       1.663  -2.669 -20.231  0.00  0.00    +0.055 C 
ATOM     11  N   UNL     1       0.748  -2.187 -21.007  0.00  0.00    -0.187 NA
BRANCH  11  12
ATOM     12  N   UNL     1      -0.505  -2.086 -20.466  0.00  0.00    -0.203 N 
ATOM     13  C   UNL     1      -1.457  -3.052 -20.756  0.00  0.00    +0.263 C 
ATOM     14  O   UNL     1      -1.266  -4.042 -21.462  0.00  0.00    -0.268 OA
ATOM     15  H   UNL     1      -0.730  -1.331 -19.875  0.00  0.00    +0.000 HD
BRANCH  13  16
ATOM     16  C   UNL     1      -2.792  -2.864 -20.121  0.00  0.00    +0.038 A 
ATOM     17  C   UNL     1      -3.819  -2.129 -20.731  0.00  0.00    -0.050 A 
ATOM     18  C   UNL     1      -5.054  -1.988 -20.091  0.00  0.00    -0.061 A 
ATOM     19  C   UNL     1      -5.271  -2.583 -18.848  0.00  0.00    -0.062 A 
ATOM     20  C   UNL     1      -4.260  -3.330 -18.244  0.00  0.00    -0.061 A 
ATOM     21  C   UNL     1      -3.027  -3.476 -18.881  0.00  0.00    -0.050 A 
ENDBRANCH  13  16
ENDBRANCH  11  12
ENDBRANCH   9  10
BRANCH   7  22
ATOM     22  C   UNL     1       5.519  -3.651 -23.222  0.00  0.00    +0.048 C 
BRANCH  22  23
ATOM     23  C   UNL     1       4.745  -4.694 -23.989  0.00  0.00    -0.028 A 
ATOM     24  C   UNL     1       4.041  -4.346 -25.151  0.00  0.00    -0.055 A 
ATOM     25  C   UNL     1       3.219  -5.277 -25.789  0.00  0.00    -0.043 A 
ATOM     26  C   UNL     1       3.110  -6.567 -25.277  0.00  0.00    +0.041 A 
ATOM     27  C   UNL     1       3.851  -6.949 -24.162  0.00  0.00    -0.043 A 
ATOM     28  C   UNL     1       4.669  -6.015 -23.520  0.00  0.00    -0.055 A 
ATOM     29 CL   UNL     1       2.029  -7.687 -26.012  0.00  0.00    -0.084 Cl
ENDBRANCH  22  23
ENDBRANCH   7  22
TORSDOF 5
ENDMDL
MODEL 2
REMARK VINA RESULT:    -9.606      1.716      2.113
REMARK INTER + INTRA:         -13.088
REMARK INTER:                 -12.166
REMARK INTRA:                  -0.921
REMARK UNBOUND:                -0.673
REMARK  Name = 18c.sdf
REMARK  5 active torsions:
REMARK  status: ('A' for Active; 'I' for Inactive)
REMARK    1  A    between atoms: N_7  and  C_12
REMARK    2  A    between atoms: C_9  and  C_10
REMARK    3  A    between atoms: N_11  and  N_19
REMARK    4  A    between atoms: C_12  and  C_13
REMARK    5  A    between atoms: C_20  and  C_22
REMARK                            x       y       z     vdW  Elec       q    Type
REMARK                         _______ _______ _______ _____ _____    ______ ____
ROOT
ATOM      1  C   UNL     1       4.785  -2.153 -17.838  0.00  0.00    -0.061 A 
ATOM      2  C   UNL     1       5.978  -1.973 -18.527  0.00  0.00    -0.060 A 
ATOM      3  C   UNL     1       6.049  -2.177 -19.909  0.00  0.00    -0.038 A 
ATOM      4  C   UNL     1       4.881  -2.565 -20.589  0.00  0.00    +0.050 A 
ATOM      5  C   UNL     1       3.657  -2.703 -19.922  0.00  0.00    +0.009 A 
ATOM      6  C   UNL     1       3.619  -2.506 -18.523  0.00  0.00    -0.052 A 
ATOM      7  N   UNL     1       4.654  -2.890 -21.915  0.00  0.00    -0.342 N 
ATOM      8  C   UNL     1       3.318  -3.138 -22.109  0.00  0.00    +0.015 A 
ATOM      9  C   UNL     1       2.664  -3.027 -20.898  0.00  0.00    +0.020 A 
ENDROOT
BRANCH   9  10
ATOM     10  C   UNL     1       1.244  -3.205 -20.677  0.00  0.00    +0.055 C 
ATOM     11  N   UNL     1       0.401  -2.837 -21.584  0.00  0.00    -0.187 NA
BRANCH  11  12
ATOM     12  N   UNL     1      -0.921  -3.028 -21.287  0.00  0.00    -0.203 N 
ATOM     13  C   UNL     1      -1.678  -1.967 -20.812  0.00  0.00    +0.263 C 
ATOM     14  O   UNL     1      -1.261  -0.820 -20.649  0.00  0.00    -0.268 OA
ATOM     15  H   UNL     1      -1.333  -3.914 -21.409  0.00  0.00    +0.000 HD
BRANCH  13  16
ATOM     16  C   UNL     1      -3.108  -2.264 -20.520  0.00  0.00    +0.038 A 
ATOM     17  C   UNL     1      -4.157  -1.757 -21.301  0.00  0.00    -0.050 A 
ATOM     18  C   UNL     1      -5.482  -2.072 -20.984  0.00  0.00    -0.061 A 
ATOM     19  C   UNL     1      -5.764  -2.897 -19.895  0.00  0.00    -0.062 A 
ATOM     20  C   UNL     1      -4.726  -3.419 -19.125  0.00  0.00    -0.061 A 
ATOM     21  C   UNL     1      -3.402  -3.109 -19.440  0.00  0.00    -0.050 A 
ENDBRANCH  13  16
ENDBRANCH  11  12
ENDBRANCH   9  10
BRANCH   7  22
ATOM     22  C   UNL     1       5.670  -3.071 -22.953  0.00  0.00    +0.048 C 
BRANCH  22  23
ATOM     23  C   UNL     1       5.955  -4.531 -23.208  0.00  0.00    -0.028 A 
ATOM     24  C   UNL     1       6.719  -5.276 -22.298  0.00  0.00    -0.055 A 
ATOM     25  C   UNL     1       7.094  -6.587 -22.593  0.00  0.00    -0.043 A 
ATOM     26  C   UNL     1       6.693  -7.168 -23.794  0.00  0.00    +0.041 A 
ATOM     27  C   UNL     1       5.880  -6.465 -24.679  0.00  0.00    -0.043 A 
ATOM     28  C   UNL     1       5.510  -5.150 -24.387  0.00  0.00    -0.055 A 
ATOM     29 CL   UNL     1       7.229  -8.752 -24.196  0.00  0.00    -0.084 Cl
ENDBRANCH  22  23
ENDBRANCH   7  22
TORSDOF 5
ENDMDL
MODEL 3
REMARK VINA RESULT:    -9.528      3.282      7.884
REMARK INTER + INTRA:         -12.986
REMARK INTER:                 -12.593
REMARK INTRA:                  -0.394
REMARK UNBOUND:                -0.673
REMARK  Name = 18c.sdf
REMARK  5 active torsions:
REMARK  status: ('A' for Active; 'I' for Inactive)
REMARK    1  A    between atoms: N_7  and  C_12
REMARK    2  A    between atoms: C_9  and  C_10
REMARK    3  A    between atoms: N_11  and  N_19
REMARK    4  A    between atoms: C_12  and  C_13
REMARK    5  A    between atoms: C_20  and  C_22
REMARK                            x       y       z     vdW  Elec       q    Type
REMARK                         _______ _______ _______ _____ _____    ______ ____
ROOT
ATOM      1  C   UNL     1       5.353  -2.504 -21.168  0.00  0.00    -0.061 A 
ATOM      2  C   UNL     1       4.883  -1.839 -20.042  0.00  0.00    -0.060 A 
ATOM      3  C   UNL     1       3.514  -1.776 -19.762  0.00  0.00    -0.038 A 
ATOM      4  C   UNL     1       2.620  -2.409 -20.645  0.00  0.00    +0.050 A 
ATOM      5  C   UNL     1       3.076  -3.128 -21.758  0.00  0.00    +0.009 A 
ATOM      6  C   UNL     1       4.464  -3.160 -22.024  0.00  0.00    -0.052 A 
ATOM      7  N   UNL     1       1.238  -2.471 -20.666  0.00  0.00    -0.342 N 
ATOM      8  C   UNL     1       0.826  -3.275 -21.700  0.00  0.00    +0.015 A 
ATOM      9  C   UNL     1       1.937  -3.707 -22.398  0.00  0.00    +0.020 A 
ENDROOT
BRANCH   9  10
ATOM     10  C   UNL     1       1.931  -4.580 -23.553  0.00  0.00    +0.055 C 
ATOM     11  N   UNL     1       1.783  -5.854 -23.395  0.00  0.00    -0.187 NA
BRANCH  11  12
ATOM     12  N   UNL     1       1.805  -6.607 -24.537  0.00  0.00    -0.203 N 
ATOM     13  C   UNL     1       2.953  -7.308 -24.875  0.00  0.00    +0.263 C 
ATOM     14  O   UNL     1       3.985  -7.336 -24.206  0.00  0.00    -0.268 OA
ATOM     15  H   UNL     1       1.009  -6.650 -25.116  0.00  0.00    +0.000 HD
BRANCH  13  16
ATOM     16  C   UNL     1       2.884  -8.104 -26.133  0.00  0.00    +0.038 A 
ATOM     17  C   UNL     1       1.764  -8.084 -26.976  0.00  0.00    -0.050 A 
ATOM     18  C   UNL     1       1.755  -8.848 -28.147  0.00  0.00    -0.061 A 
ATOM     19  C   UNL     1       2.863  -9.627 -28.483  0.00  0.00    -0.062 A 
ATOM     20  C   UNL     1       3.987  -9.637 -27.659  0.00  0.00    -0.061 A 
ATOM     21  C   UNL     1       4.001  -8.874 -26.490  0.00  0.00    -0.050 A 
ENDBRANCH  13  16
ENDBRANCH  11  12
ENDBRANCH   9  10
BRANCH   7  22
ATOM     22  C   UNL     1       0.320  -1.715 -19.814  0.00  0.00    +0.048 C 
BRANCH  22  23
ATOM     23  C   UNL     1      -1.111  -1.850 -20.276  0.00  0.00    -0.028 A 
ATOM     24  C   UNL     1      -1.779  -0.756 -20.846  0.00  0.00    -0.055 A 
ATOM     25  C   UNL     1      -3.138  -0.838 -21.153  0.00  0.00    -0.043 A 
ATOM     26  C   UNL     1      -3.833  -2.019 -20.907  0.00  0.00    +0.041 A 
ATOM     27  C   UNL     1      -3.170  -3.135 -20.401  0.00  0.00    -0.043 A 
ATOM     28  C   UNL     1      -1.812  -3.051 -20.087  0.00  0.00    -0.055 A 
ATOM     29 CL   UNL     1      -5.527  -2.090 -21.204  0.00  0.00    -0.084 Cl
ENDBRANCH  22  23
ENDBRANCH   7  22
TORSDOF 5
ENDMDL
