MODEL 1
REMARK VINA RESULT:    -5.811      0.000      0.000
REMARK INTER + INTRA:          -6.198
REMARK INTER:                  -6.151
REMARK INTRA:                  -0.047
REMARK UNBOUND:                -0.047
REMARK  Name = 1.sdf
REMARK  1 active torsions:
REMARK  status: ('A' for Active; 'I' for Inactive)
REMARK    1  A    between atoms: C_9  and  C_10
REMARK                            x       y       z     vdW  Elec       q    Type
REMARK                         _______ _______ _______ _____ _____    ______ ____
ROOT
ATOM      1  C   UNL     1       2.301  -2.789 -21.599  0.00  0.00    -0.061 A 
ATOM      2  C   UNL     1       1.107  -2.219 -21.168  0.00  0.00    -0.060 A 
ATOM      3  C   UNL     1       0.981  -1.699 -19.877  0.00  0.00    -0.038 A 
ATOM      4  C   UNL     1       2.095  -1.778 -19.033  0.00  0.00    +0.047 A 
ATOM      5  C   UNL     1       3.308  -2.346 -19.432  0.00  0.00    +0.010 A 
ATOM      6  C   UNL     1       3.407  -2.857 -20.744  0.00  0.00    -0.052 A 
ATOM      7  N   UNL     1       2.251  -1.359 -17.732  0.00  0.00    -0.360 N 
ATOM      8  C   UNL     1       3.512  -1.649 -17.291  0.00  0.00    +0.013 A 
ATOM      9  C   UNL     1       4.204  -2.260 -18.319  0.00  0.00    +0.039 A 
ATOM     10  H   UNL     1       1.554  -0.915 -17.196  0.00  0.00    +0.000 HD
ENDROOT
BRANCH   9  11
ATOM     11  C   UNL     1       5.578  -2.720 -18.245  0.00  0.00    +0.152 C 
ATOM     12  O   UNL     1       6.541  -2.072 -18.644  0.00  0.00    -0.296 OA
ENDBRANCH   9  11
TORSDOF 1
ENDMDL
MODEL 2
REMARK VINA RESULT:    -5.773      2.125      3.102
REMARK INTER + INTRA:          -6.157
REMARK INTER:                  -6.126
REMARK INTRA:                  -0.030
REMARK UNBOUND:                -0.047
REMARK  Name = 1.sdf
REMARK  1 active torsions:
REMARK  status: ('A' for Active; 'I' for Inactive)
REMARK    1  A    between atoms: C_9  and  C_10
REMARK                            x       y       z     vdW  Elec       q    Type
REMARK                         _______ _______ _______ _____ _____    ______ ____
ROOT
ATOM      1  C   UNL     1       2.428  -2.353 -19.204  0.00  0.00    -0.061 A 
ATOM      2  C   UNL     1       2.569  -1.770 -17.949  0.00  0.00    -0.060 A 
ATOM      3  C   UNL     1       3.833  -1.522 -17.407  0.00  0.00    -0.038 A 
ATOM      4  C   UNL     1       4.950  -1.887 -18.169  0.00  0.00    +0.047 A 
ATOM      5  C   UNL     1       4.844  -2.476 -19.431  0.00  0.00    +0.010 A 
ATOM      6  C   UNL     1       3.555  -2.708 -19.955  0.00  0.00    -0.052 A 
ATOM      7  N   UNL     1       6.290  -1.767 -17.887  0.00  0.00    -0.360 N 
ATOM      8  C   UNL     1       7.036  -2.266 -18.918  0.00  0.00    +0.013 A 
ATOM      9  C   UNL     1       6.175  -2.715 -19.902  0.00  0.00    +0.039 A 
ATOM     10  H   UNL     1       6.660  -1.378 -17.060  0.00  0.00    +0.000 HD
ENDROOT
BRANCH   9  11
ATOM     11  C   UNL     1       6.581  -3.314 -21.158  0.00  0.00    +0.152 C 
ATOM     12  O   UNL     1       7.143  -4.402 -21.250  0.00  0.00    -0.296 OA
ENDBRANCH   9  11
TORSDOF 1
ENDMDL
MODEL 3
REMARK VINA RESULT:    -5.696      2.821      4.487
REMARK INTER + INTRA:          -6.076
REMARK INTER:                  -6.033
REMARK INTRA:                  -0.043
REMARK UNBOUND:                -0.047
REMARK  Name = 1.sdf
REMARK  1 active torsions:
REMARK  status: ('A' for Active; 'I' for Inactive)
REMARK    1  A    between atoms: C_9  and  C_10
REMARK                            x       y       z     vdW  Elec       q    Type
REMARK                         _______ _______ _______ _____ _____    ______ ____
ROOT
ATOM      1  C   UNL     1       3.799  -2.405 -17.736  0.00  0.00    -0.061 A 
ATOM      2  C   UNL     1       4.973  -2.347 -18.480  0.00  0.00    -0.060 A 
ATOM      3  C   UNL     1       4.955  -2.510 -19.868  0.00  0.00    -0.038 A 
ATOM      4  C   UNL     1       3.717  -2.737 -20.480  0.00  0.00    +0.047 A 
ATOM      5  C   UNL     1       2.519  -2.803 -19.763  0.00  0.00    +0.010 A 
ATOM      6  C   UNL     1       2.567  -2.629 -18.363  0.00  0.00    -0.052 A 
ATOM      7  N   UNL     1       3.408  -2.934 -21.806  0.00  0.00    -0.360 N 
ATOM      8  C   UNL     1       2.063  -3.131 -21.953  0.00  0.00    +0.013 A 
ATOM      9  C   UNL     1       1.472  -3.054 -20.706  0.00  0.00    +0.039 A 
ATOM     10  H   UNL     1       4.062  -2.933 -22.543  0.00  0.00    +0.000 HD
ENDROOT
BRANCH   9  11
ATOM     11  C   UNL     1       0.055  -3.209 -20.443  0.00  0.00    +0.152 C 
ATOM     12  O   UNL     1      -0.484  -4.285 -20.197  0.00  0.00    -0.296 OA
ENDBRANCH   9  11
TORSDOF 1
ENDMDL
