MODEL 1
REMARK VINA RESULT:    -8.246      0.000      0.000
REMARK INTER + INTRA:          -9.974
REMARK INTER:                  -9.692
REMARK INTRA:                  -0.281
REMARK UNBOUND:                -0.281
REMARK  Name = 1a.sdf
REMARK  3 active torsions:
REMARK  status: ('A' for Active; 'I' for Inactive)
REMARK    1  A    between atoms: N_7  and  C_12
REMARK    2  A    between atoms: C_9  and  C_10
REMARK    3  A    between atoms: C_12  and  C_13
REMARK                            x       y       z     vdW  Elec       q    Type
REMARK                         _______ _______ _______ _____ _____    ______ ____
ROOT
ATOM      1  C   UNL     1       4.749  -2.762 -18.137  0.00  0.00    -0.061 A 
ATOM      2  C   UNL     1       3.757  -2.048 -17.476  0.00  0.00    -0.060 A 
ATOM      3  C   UNL     1       2.611  -1.616 -18.151  0.00  0.00    -0.038 A 
ATOM      4  C   UNL     1       2.480  -1.931 -19.515  0.00  0.00    +0.050 A 
ATOM      5  C   UNL     1       3.447  -2.686 -20.191  0.00  0.00    +0.010 A 
ATOM      6  C   UNL     1       4.603  -3.093 -19.487  0.00  0.00    -0.052 A 
ATOM      7  N   UNL     1       1.501  -1.609 -20.438  0.00  0.00    -0.342 N 
ATOM      8  C   UNL     1       1.790  -2.198 -21.645  0.00  0.00    +0.016 A 
ATOM      9  C   UNL     1       2.989  -2.871 -21.531  0.00  0.00    +0.039 A 
ENDROOT
BRANCH   9  10
ATOM     10  C   UNL     1       3.633  -3.614 -22.597  0.00  0.00    +0.152 C 
ATOM     11  O   UNL     1       3.208  -4.671 -23.055  0.00  0.00    -0.296 OA
ENDBRANCH   9  10
BRANCH   7  12
ATOM     12  C   UNL     1       0.384  -0.689 -20.233  0.00  0.00    +0.048 C 
BRANCH  12  13
ATOM     13  C   UNL     1      -0.945  -1.362 -20.467  0.00  0.00    -0.028 A 
ATOM     14  C   UNL     1      -2.077  -0.603 -20.803  0.00  0.00    -0.056 A 
ATOM     15  C   UNL     1      -3.329  -1.209 -20.918  0.00  0.00    -0.047 A 
ATOM     16  C   UNL     1      -3.455  -2.580 -20.709  0.00  0.00    +0.018 A 
ATOM     17  C   UNL     1      -2.335  -3.357 -20.425  0.00  0.00    -0.047 A 
ATOM     18  C   UNL     1      -1.082  -2.748 -20.307  0.00  0.00    -0.056 A 
ATOM     19 BR   UNL     1      -5.164  -3.384 -20.779  0.00  0.00    -0.050 Br
ENDBRANCH  12  13
ENDBRANCH   7  12
TORSDOF 3
ENDMDL
MODEL 2
REMARK VINA RESULT:    -8.233      3.683      6.453
REMARK INTER + INTRA:          -9.958
REMARK INTER:                  -9.465
REMARK INTRA:                  -0.493
REMARK UNBOUND:                -0.281
REMARK  Name = 1a.sdf
REMARK  3 active torsions:
REMARK  status: ('A' for Active; 'I' for Inactive)
REMARK    1  A    between atoms: N_7  and  C_12
REMARK    2  A    between atoms: C_9  and  C_10
REMARK    3  A    between atoms: C_12  and  C_13
REMARK                            x       y       z     vdW  Elec       q    Type
REMARK                         _______ _______ _______ _____ _____    ______ ____
ROOT
ATOM      1  C   UNL     1       1.452  -4.946 -23.487  0.00  0.00    -0.061 A 
ATOM      2  C   UNL     1       2.724  -4.423 -23.284  0.00  0.00    -0.060 A 
ATOM      3  C   UNL     1       2.951  -3.440 -22.314  0.00  0.00    -0.038 A 
ATOM      4  C   UNL     1       1.862  -2.999 -21.543  0.00  0.00    +0.050 A 
ATOM      5  C   UNL     1       0.581  -3.543 -21.701  0.00  0.00    +0.010 A 
ATOM      6  C   UNL     1       0.378  -4.522 -22.700  0.00  0.00    -0.052 A 
ATOM      7  N   UNL     1       1.770  -2.029 -20.560  0.00  0.00    -0.342 N 
ATOM      8  C   UNL     1       0.494  -2.001 -20.054  0.00  0.00    +0.016 A 
ATOM      9  C   UNL     1      -0.272  -2.922 -20.737  0.00  0.00    +0.039 A 
ENDROOT
BRANCH   9  10
ATOM     10  C   UNL     1      -1.678  -3.182 -20.495  0.00  0.00    +0.152 C 
ATOM     11  O   UNL     1      -2.570  -2.353 -20.656  0.00  0.00    -0.296 OA
ENDBRANCH   9  10
BRANCH   7  12
ATOM     12  C   UNL     1       2.814  -1.079 -20.179  0.00  0.00    +0.048 C 
BRANCH  12  13
ATOM     13  C   UNL     1       4.040  -1.778 -19.647  0.00  0.00    -0.028 A 
ATOM     14  C   UNL     1       5.263  -1.685 -20.327  0.00  0.00    -0.056 A 
ATOM     15  C   UNL     1       6.372  -2.415 -19.896  0.00  0.00    -0.047 A 
ATOM     16  C   UNL     1       6.267  -3.232 -18.774  0.00  0.00    +0.018 A 
ATOM     17  C   UNL     1       5.076  -3.298 -18.056  0.00  0.00    -0.047 A 
ATOM     18  C   UNL     1       3.965  -2.569 -18.491  0.00  0.00    -0.056 A 
ATOM     19 BR   UNL     1       7.744  -4.286 -18.242  0.00  0.00    -0.050 Br
ENDBRANCH  12  13
ENDBRANCH   7  12
TORSDOF 3
ENDMDL
MODEL 3
REMARK VINA RESULT:    -7.981      3.278      5.516
REMARK INTER + INTRA:          -9.662
REMARK INTER:                  -9.154
REMARK INTRA:                  -0.508
REMARK UNBOUND:                -0.281
REMARK  Name = 1a.sdf
REMARK  3 active torsions:
REMARK  status: ('A' for Active; 'I' for Inactive)
REMARK    1  A    between atoms: N_7  and  C_12
REMARK    2  A    between atoms: C_9  and  C_10
REMARK    3  A    between atoms: C_12  and  C_13
REMARK                            x       y       z     vdW  Elec       q    Type
REMARK                         _______ _______ _______ _____ _____    ______ ____
ROOT
ATOM      1  C   UNL     1       3.842  -2.649 -17.844  0.00  0.00    -0.061 A 
ATOM      2  C   UNL     1       5.007  -2.610 -18.601  0.00  0.00    -0.060 A 
ATOM      3  C   UNL     1       4.962  -2.716 -19.995  0.00  0.00    -0.038 A 
ATOM      4  C   UNL     1       3.709  -2.855 -20.614  0.00  0.00    +0.050 A 
ATOM      5  C   UNL     1       2.519  -2.854 -19.875  0.00  0.00    +0.010 A 
ATOM      6  C   UNL     1       2.596  -2.762 -18.467  0.00  0.00    -0.052 A 
ATOM      7  N   UNL     1       3.358  -3.024 -21.943  0.00  0.00    -0.342 N 
ATOM      8  C   UNL     1       1.990  -3.055 -22.061  0.00  0.00    +0.016 A 
ATOM      9  C   UNL     1       1.436  -2.956 -20.802  0.00  0.00    +0.039 A 
ENDROOT
BRANCH   9  10
ATOM     10  C   UNL     1       0.015  -2.960 -20.512  0.00  0.00    +0.152 C 
ATOM     11  O   UNL     1      -0.643  -3.975 -20.301  0.00  0.00    -0.296 OA
ENDBRANCH   9  10
BRANCH   7  12
ATOM     12  C   UNL     1       4.273  -3.258 -23.058  0.00  0.00    +0.048 C 
BRANCH  12  13
ATOM     13  C   UNL     1       3.849  -4.442 -23.890  0.00  0.00    -0.028 A 
ATOM     14  C   UNL     1       3.312  -4.254 -25.173  0.00  0.00    -0.056 A 
ATOM     15  C   UNL     1       2.822  -5.338 -25.903  0.00  0.00    -0.047 A 
ATOM     16  C   UNL     1       2.877  -6.619 -25.359  0.00  0.00    +0.018 A 
ATOM     17  C   UNL     1       3.452  -6.831 -24.109  0.00  0.00    -0.047 A 
ATOM     18  C   UNL     1       3.939  -5.745 -23.378  0.00  0.00    -0.056 A 
ATOM     19 BR   UNL     1       2.134  -8.073 -26.312  0.00  0.00    -0.050 Br
ENDBRANCH  12  13
ENDBRANCH   7  12
TORSDOF 3
ENDMDL
