MODEL 1
REMARK VINA RESULT:    -7.845      0.000      0.000
REMARK INTER + INTRA:          -9.484
REMARK INTER:                  -9.221
REMARK INTRA:                  -0.263
REMARK UNBOUND:                -0.263
REMARK  Name = 1b.sdf
REMARK  3 active torsions:
REMARK  status: ('A' for Active; 'I' for Inactive)
REMARK    1  A    between atoms: N_7  and  C_12
REMARK    2  A    between atoms: C_9  and  C_10
REMARK    3  A    between atoms: C_12  and  C_13
REMARK                            x       y       z     vdW  Elec       q    Type
REMARK                         _______ _______ _______ _____ _____    ______ ____
ROOT
ATOM      1  C   UNL     1       4.934  -2.027 -18.032  0.00  0.00    -0.061 A 
ATOM      2  C   UNL     1       3.659  -2.243 -17.522  0.00  0.00    -0.060 A 
ATOM      3  C   UNL     1       2.606  -2.629 -18.357  0.00  0.00    -0.038 A 
ATOM      4  C   UNL     1       2.867  -2.798 -19.728  0.00  0.00    +0.050 A 
ATOM      5  C   UNL     1       4.155  -2.625 -20.255  0.00  0.00    +0.010 A 
ATOM      6  C   UNL     1       5.194  -2.223 -19.391  0.00  0.00    -0.052 A 
ATOM      7  N   UNL     1       2.038  -3.117 -20.788  0.00  0.00    -0.342 N 
ATOM      8  C   UNL     1       2.774  -3.217 -21.941  0.00  0.00    +0.016 A 
ATOM      9  C   UNL     1       4.090  -2.919 -21.653  0.00  0.00    +0.039 A 
ENDROOT
BRANCH   9  10
ATOM     10  C   UNL     1       5.173  -2.905 -22.614  0.00  0.00    +0.152 C 
ATOM     11  O   UNL     1       5.009  -2.926 -23.832  0.00  0.00    -0.296 OA
ENDBRANCH   9  10
BRANCH   7  12
ATOM     12  C   UNL     1       0.579  -3.205 -20.751  0.00  0.00    +0.048 C 
BRANCH  12  13
ATOM     13  C   UNL     1      -0.068  -1.848 -20.688  0.00  0.00    -0.025 A 
ATOM     14  C   UNL     1       0.702  -0.683 -20.747  0.00  0.00    -0.039 A 
ATOM     15  C   UNL     1       0.067   0.543 -20.640  0.00  0.00    +0.028 A 
ATOM     16  N   UNL     1      -1.266   0.689 -20.497  0.00  0.00    -0.263 NA
ATOM     17  C   UNL     1      -1.998  -0.444 -20.455  0.00  0.00    +0.028 A 
ATOM     18  C   UNL     1      -1.454  -1.717 -20.548  0.00  0.00    -0.039 A 
ENDBRANCH  12  13
ENDBRANCH   7  12
TORSDOF 3
ENDMDL
MODEL 2
REMARK VINA RESULT:    -7.595      3.134      5.000
REMARK INTER + INTRA:          -9.190
REMARK INTER:                  -8.598
REMARK INTRA:                  -0.593
REMARK UNBOUND:                -0.263
REMARK  Name = 1b.sdf
REMARK  3 active torsions:
REMARK  status: ('A' for Active; 'I' for Inactive)
REMARK    1  A    between atoms: N_7  and  C_12
REMARK    2  A    between atoms: C_9  and  C_10
REMARK    3  A    between atoms: C_12  and  C_13
REMARK                            x       y       z     vdW  Elec       q    Type
REMARK                         _______ _______ _______ _____ _____    ______ ____
ROOT
ATOM      1  C   UNL     1       2.722  -2.124 -17.836  0.00  0.00    -0.061 A 
ATOM      2  C   UNL     1       1.964  -2.163 -19.000  0.00  0.00    -0.060 A 
ATOM      3  C   UNL     1       2.547  -2.497 -20.227  0.00  0.00    -0.038 A 
ATOM      4  C   UNL     1       3.920  -2.798 -20.256  0.00  0.00    +0.050 A 
ATOM      5  C   UNL     1       4.692  -2.805 -19.086  0.00  0.00    +0.010 A 
ATOM      6  C   UNL     1       4.081  -2.451 -17.865  0.00  0.00    -0.052 A 
ATOM      7  N   UNL     1       4.770  -3.107 -21.302  0.00  0.00    -0.342 N 
ATOM      8  C   UNL     1       6.025  -3.373 -20.818  0.00  0.00    +0.016 A 
ATOM      9  C   UNL     1       6.018  -3.196 -19.449  0.00  0.00    +0.039 A 
ENDROOT
BRANCH   9  10
ATOM     10  C   UNL     1       7.162  -3.372 -18.578  0.00  0.00    +0.152 C 
ATOM     11  O   UNL     1       7.440  -4.430 -18.017  0.00  0.00    -0.296 OA
ENDBRANCH   9  10
BRANCH   7  12
ATOM     12  C   UNL     1       4.452  -3.034 -22.727  0.00  0.00    +0.048 C 
BRANCH  12  13
ATOM     13  C   UNL     1       3.764  -4.278 -23.218  0.00  0.00    -0.025 A 
ATOM     14  C   UNL     1       2.381  -4.298 -23.423  0.00  0.00    -0.039 A 
ATOM     15  C   UNL     1       1.784  -5.479 -23.833  0.00  0.00    +0.028 A 
ATOM     16  N   UNL     1       2.461  -6.622 -24.066  0.00  0.00    -0.263 NA
ATOM     17  C   UNL     1       3.797  -6.584 -23.876  0.00  0.00    +0.028 A 
ATOM     18  C   UNL     1       4.484  -5.453 -23.462  0.00  0.00    -0.039 A 
ENDBRANCH  12  13
ENDBRANCH   7  12
TORSDOF 3
ENDMDL
MODEL 3
REMARK VINA RESULT:    -7.592      2.035      3.317
REMARK INTER + INTRA:          -9.187
REMARK INTER:                  -8.966
REMARK INTRA:                  -0.221
REMARK UNBOUND:                -0.263
REMARK  Name = 1b.sdf
REMARK  3 active torsions:
REMARK  status: ('A' for Active; 'I' for Inactive)
REMARK    1  A    between atoms: N_7  and  C_12
REMARK    2  A    between atoms: C_9  and  C_10
REMARK    3  A    between atoms: C_12  and  C_13
REMARK                            x       y       z     vdW  Elec       q    Type
REMARK                         _______ _______ _______ _____ _____    ______ ____
ROOT
ATOM      1  C   UNL     1       6.131  -2.948 -21.054  0.00  0.00    -0.061 A 
ATOM      2  C   UNL     1       5.437  -3.147 -22.241  0.00  0.00    -0.060 A 
ATOM      3  C   UNL     1       4.040  -3.098 -22.275  0.00  0.00    -0.038 A 
ATOM      4  C   UNL     1       3.351  -2.837 -21.077  0.00  0.00    +0.050 A 
ATOM      5  C   UNL     1       4.034  -2.592 -19.878  0.00  0.00    +0.010 A 
ATOM      6  C   UNL     1       5.442  -2.661 -19.872  0.00  0.00    -0.052 A 
ATOM      7  N   UNL     1       1.999  -2.778 -20.791  0.00  0.00    -0.342 N 
ATOM      8  C   UNL     1       1.817  -2.437 -19.475  0.00  0.00    +0.016 A 
ATOM      9  C   UNL     1       3.054  -2.313 -18.875  0.00  0.00    +0.039 A 
ENDROOT
BRANCH   9  10
ATOM     10  C   UNL     1       3.278  -1.975 -17.484  0.00  0.00    +0.152 C 
ATOM     11  O   UNL     1       4.043  -1.089 -17.109  0.00  0.00    -0.296 OA
ENDBRANCH   9  10
BRANCH   7  12
ATOM     12  C   UNL     1       0.906  -3.151 -21.687  0.00  0.00    +0.048 C 
BRANCH  12  13
ATOM     13  C   UNL     1      -0.416  -2.597 -21.230  0.00  0.00    -0.025 A 
ATOM     14  C   UNL     1      -1.448  -3.448 -20.824  0.00  0.00    -0.039 A 
ATOM     15  C   UNL     1      -2.663  -2.895 -20.455  0.00  0.00    +0.028 A 
ATOM     16  N   UNL     1      -2.914  -1.570 -20.446  0.00  0.00    -0.263 NA
ATOM     17  C   UNL     1      -1.904  -0.760 -20.828  0.00  0.00    +0.028 A 
ATOM     18  C   UNL     1      -0.655  -1.218 -21.220  0.00  0.00    -0.039 A 
ENDBRANCH  12  13
ENDBRANCH   7  12
TORSDOF 3
ENDMDL
