MODEL 1
REMARK VINA RESULT:    -8.419      0.000      0.000
REMARK INTER + INTRA:         -11.300
REMARK INTER:                 -10.880
REMARK INTRA:                  -0.420
REMARK UNBOUND:                -0.420
REMARK  Name = 21.sdf
REMARK  5 active torsions:
REMARK  status: ('A' for Active; 'I' for Inactive)
REMARK    1  A    between atoms: C_9  and  C_10
REMARK    2  A    between atoms: C_10  and  O_11
REMARK    3  A    between atoms: O_11  and  C_12
REMARK    4  A    between atoms: C_12  and  C_13
REMARK    5  A    between atoms: C_13  and  C_14
REMARK                            x       y       z     vdW  Elec       q    Type
REMARK                         _______ _______ _______ _____ _____    ______ ____
ROOT
ATOM      1  C   UNL     1       2.722  -2.607 -18.945  0.00  0.00    +0.075 C 
ENDROOT
BRANCH   1  10
ATOM      2  C   UNL     1       6.626  -3.504 -21.451  0.00  0.00    -0.061 A 
ATOM      3  C   UNL     1       7.790  -3.136 -20.779  0.00  0.00    -0.060 A 
ATOM      4  C   UNL     1       7.723  -2.491 -19.541  0.00  0.00    -0.038 A 
ATOM      5  C   UNL     1       6.458  -2.265 -18.985  0.00  0.00    +0.047 A 
ATOM      6  C   UNL     1       5.273  -2.648 -19.615  0.00  0.00    +0.005 A 
ATOM      7  C   UNL     1       5.367  -3.249 -20.888  0.00  0.00    -0.052 A 
ATOM      8  N   UNL     1       6.102  -1.659 -17.803  0.00  0.00    -0.360 N 
ATOM      9  C   UNL     1       4.744  -1.686 -17.645  0.00  0.00    +0.008 A 
ATOM     10  C   UNL     1       4.182  -2.323 -18.738  0.00  0.00    +0.003 A 
ATOM     11  H   UNL     1       6.734  -1.263 -17.162  0.00  0.00    +0.000 HD
ENDBRANCH   1  10
BRANCH   1  12
ATOM     12  O   UNL     1       1.994  -1.394 -19.178  0.00  0.00    -0.367 OA
BRANCH  12  13
ATOM     13  C   UNL     1       1.659  -1.202 -20.543  0.00  0.00    +0.111 C 
BRANCH  13  14
ATOM     14  C   UNL     1       0.367  -0.407 -20.722  0.00  0.00    +0.189 C 
ATOM     15  O   UNL     1       0.388   0.815 -20.917  0.00  0.00    -0.290 OA
BRANCH  14  16
ATOM     16  C   UNL     1      -0.944  -1.120 -20.763  0.00  0.00    +0.020 A 
ATOM     17  C   UNL     1      -2.158  -0.444 -20.927  0.00  0.00    -0.050 A 
ATOM     18  C   UNL     1      -3.367  -1.145 -20.878  0.00  0.00    -0.047 A 
ATOM     19  C   UNL     1      -3.363  -2.523 -20.666  0.00  0.00    +0.018 A 
ATOM     20  C   UNL     1      -2.162  -3.214 -20.527  0.00  0.00    -0.047 A 
ATOM     21  C   UNL     1      -0.955  -2.513 -20.575  0.00  0.00    -0.050 A 
ATOM     22 BR   UNL     1      -5.002  -3.453 -20.520  0.00  0.00    -0.050 Br
ENDBRANCH  14  16
ENDBRANCH  13  14
ENDBRANCH  12  13
ENDBRANCH   1  12
TORSDOF 5
ENDMDL
MODEL 2
REMARK VINA RESULT:    -8.376      3.620      4.748
REMARK INTER + INTRA:         -11.244
REMARK INTER:                 -10.187
REMARK INTRA:                  -1.057
REMARK UNBOUND:                -0.420
REMARK  Name = 21.sdf
REMARK  5 active torsions:
REMARK  status: ('A' for Active; 'I' for Inactive)
REMARK    1  A    between atoms: C_9  and  C_10
REMARK    2  A    between atoms: C_10  and  O_11
REMARK    3  A    between atoms: O_11  and  C_12
REMARK    4  A    between atoms: C_12  and  C_13
REMARK    5  A    between atoms: C_13  and  C_14
REMARK                            x       y       z     vdW  Elec       q    Type
REMARK                         _______ _______ _______ _____ _____    ______ ____
ROOT
ATOM      1  C   UNL     1       1.820  -1.166 -20.042  0.00  0.00    +0.075 C 
ENDROOT
BRANCH   1  10
ATOM      2  C   UNL     1       6.472  -1.869 -20.477  0.00  0.00    -0.061 A 
ATOM      3  C   UNL     1       6.976  -2.730 -19.506  0.00  0.00    -0.060 A 
ATOM      4  C   UNL     1       6.150  -3.219 -18.489  0.00  0.00    -0.038 A 
ATOM      5  C   UNL     1       4.800  -2.847 -18.504  0.00  0.00    +0.047 A 
ATOM      6  C   UNL     1       4.254  -2.012 -19.480  0.00  0.00    +0.005 A 
ATOM      7  C   UNL     1       5.122  -1.490 -20.463  0.00  0.00    -0.052 A 
ATOM      8  N   UNL     1       3.780  -3.170 -17.641  0.00  0.00    -0.360 N 
ATOM      9  C   UNL     1       2.606  -2.607 -18.060  0.00  0.00    +0.008 A 
ATOM     10  C   UNL     1       2.844  -1.898 -19.224  0.00  0.00    +0.003 A 
ATOM     11  H   UNL     1       3.879  -3.727 -16.836  0.00  0.00    +0.000 HD
ENDBRANCH   1  10
BRANCH   1  12
ATOM     12  O   UNL     1       0.654  -1.976 -20.244  0.00  0.00    -0.367 OA
BRANCH  12  13
ATOM     13  C   UNL     1       0.334  -2.155 -21.614  0.00  0.00    +0.111 C 
BRANCH  13  14
ATOM     14  C   UNL     1       0.323  -3.627 -22.025  0.00  0.00    +0.189 C 
ATOM     15  O   UNL     1      -0.715  -4.298 -21.976  0.00  0.00    -0.290 OA
BRANCH  14  16
ATOM     16  C   UNL     1       1.557  -4.249 -22.589  0.00  0.00    +0.020 A 
ATOM     17  C   UNL     1       2.816  -3.651 -22.474  0.00  0.00    -0.050 A 
ATOM     18  C   UNL     1       3.930  -4.230 -23.088  0.00  0.00    -0.047 A 
ATOM     19  C   UNL     1       3.787  -5.407 -23.820  0.00  0.00    +0.018 A 
ATOM     20  C   UNL     1       2.545  -6.029 -23.923  0.00  0.00    -0.047 A 
ATOM     21  C   UNL     1       1.432  -5.449 -23.310  0.00  0.00    -0.050 A 
ATOM     22 BR   UNL     1       5.280  -6.141 -24.717  0.00  0.00    -0.050 Br
ENDBRANCH  14  16
ENDBRANCH  13  14
ENDBRANCH  12  13
ENDBRANCH   1  12
TORSDOF 5
ENDMDL
MODEL 3
REMARK VINA RESULT:    -8.247      4.279      6.793
REMARK INTER + INTRA:         -11.078
REMARK INTER:                 -10.135
REMARK INTRA:                  -0.942
REMARK UNBOUND:                -0.420
REMARK  Name = 21.sdf
REMARK  5 active torsions:
REMARK  status: ('A' for Active; 'I' for Inactive)
REMARK    1  A    between atoms: C_9  and  C_10
REMARK    2  A    between atoms: C_10  and  O_11
REMARK    3  A    between atoms: O_11  and  C_12
REMARK    4  A    between atoms: C_12  and  C_13
REMARK    5  A    between atoms: C_13  and  C_14
REMARK                            x       y       z     vdW  Elec       q    Type
REMARK                         _______ _______ _______ _____ _____    ______ ____
ROOT
ATOM      1  C   UNL     1       0.851  -2.317 -21.561  0.00  0.00    +0.075 C 
ENDROOT
BRANCH   1  10
ATOM      2  C   UNL     1       4.870  -4.182 -23.203  0.00  0.00    -0.061 A 
ATOM      3  C   UNL     1       4.663  -5.367 -23.904  0.00  0.00    -0.060 A 
ATOM      4  C   UNL     1       3.386  -5.930 -23.990  0.00  0.00    -0.038 A 
ATOM      5  C   UNL     1       2.325  -5.246 -23.384  0.00  0.00    +0.047 A 
ATOM      6  C   UNL     1       2.491  -4.040 -22.701  0.00  0.00    +0.005 A 
ATOM      7  C   UNL     1       3.798  -3.522 -22.584  0.00  0.00    -0.052 A 
ATOM      8  N   UNL     1       0.990  -5.564 -23.310  0.00  0.00    -0.360 N 
ATOM      9  C   UNL     1       0.303  -4.587 -22.645  0.00  0.00    +0.008 A 
ATOM     10  C   UNL     1       1.193  -3.594 -22.272  0.00  0.00    +0.003 A 
ATOM     11  H   UNL     1       0.584  -6.380 -23.682  0.00  0.00    +0.000 HD
ENDBRANCH   1  10
BRANCH   1  12
ATOM     12  O   UNL     1       0.957  -2.479 -20.140  0.00  0.00    -0.367 OA
BRANCH  12  13
ATOM     13  C   UNL     1       1.926  -1.624 -19.555  0.00  0.00    +0.111 C 
BRANCH  13  14
ATOM     14  C   UNL     1       2.950  -2.388 -18.718  0.00  0.00    +0.189 C 
ATOM     15  O   UNL     1       2.595  -3.153 -17.812  0.00  0.00    -0.290 OA
BRANCH  14  16
ATOM     16  C   UNL     1       4.402  -2.296 -19.054  0.00  0.00    +0.020 A 
ATOM     17  C   UNL     1       4.872  -1.549 -20.139  0.00  0.00    -0.050 A 
ATOM     18  C   UNL     1       6.232  -1.558 -20.464  0.00  0.00    -0.047 A 
ATOM     19  C   UNL     1       7.123  -2.313 -19.705  0.00  0.00    +0.018 A 
ATOM     20  C   UNL     1       6.675  -3.042 -18.606  0.00  0.00    -0.047 A 
ATOM     21  C   UNL     1       5.316  -3.034 -18.282  0.00  0.00    -0.050 A 
ATOM     22 BR   UNL     1       8.946  -2.386 -20.197  0.00  0.00    -0.050 Br
ENDBRANCH  14  16
ENDBRANCH  13  14
ENDBRANCH  12  13
ENDBRANCH   1  12
TORSDOF 5
ENDMDL
