MODEL 1
REMARK VINA RESULT:    -9.699      0.000      0.000
REMARK INTER + INTRA:         -13.438
REMARK INTER:                 -13.101
REMARK INTRA:                  -0.337
REMARK UNBOUND:                -0.337
REMARK  Name = 22a.sdf
REMARK  7 active torsions:
REMARK  status: ('A' for Active; 'I' for Inactive)
REMARK    1  A    between atoms: N_7  and  C_12
REMARK    2  A    between atoms: C_9  and  C_10
REMARK    3  A    between atoms: N_11  and  N_19
REMARK    4  A    between atoms: C_12  and  C_13
REMARK    5  A    between atoms: C_20  and  C_22
REMARK    6  A    between atoms: C_25  and  O_29
REMARK    7  A    between atoms: O_29  and  C_30
REMARK                            x       y       z     vdW  Elec       q    Type
REMARK                         _______ _______ _______ _____ _____    ______ ____
ROOT
ATOM      1  C   UNL     1       5.580  -2.505 -21.069  0.00  0.00    -0.061 A 
ATOM      2  C   UNL     1       5.093  -1.801 -19.974  0.00  0.00    -0.060 A 
ATOM      3  C   UNL     1       3.718  -1.687 -19.748  0.00  0.00    -0.038 A 
ATOM      4  C   UNL     1       2.837  -2.310 -20.649  0.00  0.00    +0.050 A 
ATOM      5  C   UNL     1       3.307  -3.065 -21.733  0.00  0.00    +0.009 A 
ATOM      6  C   UNL     1       4.701  -3.146 -21.947  0.00  0.00    -0.052 A 
ATOM      7  N   UNL     1       1.456  -2.332 -20.713  0.00  0.00    -0.342 N 
ATOM      8  C   UNL     1       1.053  -3.137 -21.751  0.00  0.00    +0.015 A 
ATOM      9  C   UNL     1       2.171  -3.619 -22.403  0.00  0.00    +0.020 A 
ENDROOT
BRANCH   9  10
ATOM     10  C   UNL     1       2.174  -4.512 -23.540  0.00  0.00    +0.055 C 
ATOM     11  N   UNL     1       1.786  -5.741 -23.396  0.00  0.00    -0.187 NA
BRANCH  11  12
ATOM     12  N   UNL     1       1.827  -6.522 -24.519  0.00  0.00    -0.203 N 
ATOM     13  C   UNL     1       3.007  -7.172 -24.850  0.00  0.00    +0.263 C 
ATOM     14  O   UNL     1       4.048  -7.124 -24.203  0.00  0.00    -0.268 OA
ATOM     15  H   UNL     1       1.029  -6.623 -25.086  0.00  0.00    +0.000 HD
BRANCH  13  16
ATOM     16  C   UNL     1       2.961  -8.026 -26.075  0.00  0.00    +0.039 A 
ATOM     17  C   UNL     1       4.006  -8.881 -26.438  0.00  0.00    -0.046 A 
ATOM     18  C   UNL     1       3.906  -9.644 -27.607  0.00  0.00    -0.019 A 
ATOM     19  C   UNL     1       2.762  -9.583 -28.407  0.00  0.00    +0.120 A 
ATOM     20  C   UNL     1       1.711  -8.746 -28.036  0.00  0.00    -0.019 A 
ATOM     21  C   UNL     1       1.810  -7.973 -26.872  0.00  0.00    -0.046 A 
BRANCH  19  22
ATOM     22  O   UNL     1       2.809 -10.341 -29.545  0.00  0.00    -0.495 OA
ATOM     23  C   UNL     1       3.652 -11.485 -29.508  0.00  0.00    +0.079 C 
ENDBRANCH  19  22
ENDBRANCH  13  16
ENDBRANCH  11  12
ENDBRANCH   9  10
BRANCH   7  24
ATOM     24  C   UNL     1       0.538  -1.547 -19.888  0.00  0.00    +0.048 C 
BRANCH  24  25
ATOM     25  C   UNL     1      -0.898  -1.756 -20.297  0.00  0.00    -0.028 A 
ATOM     26  C   UNL     1      -1.655  -0.694 -20.814  0.00  0.00    -0.056 A 
ATOM     27  C   UNL     1      -3.016  -0.856 -21.080  0.00  0.00    -0.047 A 
ATOM     28  C   UNL     1      -3.625  -2.085 -20.843  0.00  0.00    +0.018 A 
ATOM     29  C   UNL     1      -2.877  -3.167 -20.386  0.00  0.00    -0.047 A 
ATOM     30  C   UNL     1      -1.517  -3.003 -20.115  0.00  0.00    -0.056 A 
ATOM     31 BR   UNL     1      -5.487  -2.275 -21.111  0.00  0.00    -0.050 Br
ENDBRANCH  24  25
ENDBRANCH   7  24
TORSDOF 6
ENDMDL
MODEL 2
REMARK VINA RESULT:    -9.269      1.763      2.220
REMARK INTER + INTRA:         -12.858
REMARK INTER:                 -12.195
REMARK INTRA:                  -0.663
REMARK UNBOUND:                -0.337
REMARK  Name = 22a.sdf
REMARK  7 active torsions:
REMARK  status: ('A' for Active; 'I' for Inactive)
REMARK    1  A    between atoms: N_7  and  C_12
REMARK    2  A    between atoms: C_9  and  C_10
REMARK    3  A    between atoms: N_11  and  N_19
REMARK    4  A    between atoms: C_12  and  C_13
REMARK    5  A    between atoms: C_20  and  C_22
REMARK    6  A    between atoms: C_25  and  O_29
REMARK    7  A    between atoms: O_29  and  C_30
REMARK                            x       y       z     vdW  Elec       q    Type
REMARK                         _______ _______ _______ _____ _____    ______ ____
ROOT
ATOM      1  C   UNL     1       4.663  -2.699 -18.012  0.00  0.00    -0.061 A 
ATOM      2  C   UNL     1       3.659  -1.999 -17.353  0.00  0.00    -0.060 A 
ATOM      3  C   UNL     1       2.512  -1.578 -18.032  0.00  0.00    -0.038 A 
ATOM      4  C   UNL     1       2.391  -1.888 -19.398  0.00  0.00    +0.050 A 
ATOM      5  C   UNL     1       3.368  -2.634 -20.072  0.00  0.00    +0.009 A 
ATOM      6  C   UNL     1       4.526  -3.029 -19.363  0.00  0.00    -0.052 A 
ATOM      7  N   UNL     1       1.416  -1.572 -20.326  0.00  0.00    -0.342 N 
ATOM      8  C   UNL     1       1.715  -2.160 -21.531  0.00  0.00    +0.015 A 
ATOM      9  C   UNL     1       2.914  -2.837 -21.413  0.00  0.00    +0.020 A 
ENDROOT
BRANCH   9  10
ATOM     10  C   UNL     1       3.568  -3.599 -22.454  0.00  0.00    +0.055 C 
ATOM     11  N   UNL     1       2.936  -4.572 -23.032  0.00  0.00    -0.187 NA
BRANCH  11  12
ATOM     12  N   UNL     1       3.628  -5.248 -24.000  0.00  0.00    -0.203 N 
ATOM     13  C   UNL     1       2.984  -6.238 -24.728  0.00  0.00    +0.263 C 
ATOM     14  O   UNL     1       1.810  -6.566 -24.593  0.00  0.00    -0.268 OA
ATOM     15  H   UNL     1       4.572  -5.035 -24.180  0.00  0.00    +0.000 HD
BRANCH  13  16
ATOM     16  C   UNL     1       3.801  -6.910 -25.783  0.00  0.00    +0.039 A 
ATOM     17  C   UNL     1       3.375  -7.021 -27.110  0.00  0.00    -0.046 A 
ATOM     18  C   UNL     1       4.183  -7.676 -28.047  0.00  0.00    -0.019 A 
ATOM     19  C   UNL     1       5.427  -8.200 -27.681  0.00  0.00    +0.120 A 
ATOM     20  C   UNL     1       5.862  -8.071 -26.363  0.00  0.00    -0.019 A 
ATOM     21  C   UNL     1       5.053  -7.425 -25.419  0.00  0.00    -0.046 A 
BRANCH  19  22
ATOM     22  O   UNL     1       6.096  -8.855 -28.677  0.00  0.00    -0.495 OA
ATOM     23  C   UNL     1       7.335  -9.454 -28.320  0.00  0.00    +0.079 C 
ENDBRANCH  19  22
ENDBRANCH  13  16
ENDBRANCH  11  12
ENDBRANCH   9  10
BRANCH   7  24
ATOM     24  C   UNL     1       0.286  -0.666 -20.121  0.00  0.00    +0.048 C 
BRANCH  24  25
ATOM     25  C   UNL     1      -1.031  -1.346 -20.395  0.00  0.00    -0.028 A 
ATOM     26  C   UNL     1      -2.145  -0.604 -20.814  0.00  0.00    -0.056 A 
ATOM     27  C   UNL     1      -3.394  -1.212 -20.951  0.00  0.00    -0.047 A 
ATOM     28  C   UNL     1      -3.533  -2.571 -20.684  0.00  0.00    +0.018 A 
ATOM     29  C   UNL     1      -2.427  -3.337 -20.324  0.00  0.00    -0.047 A 
ATOM     30  C   UNL     1      -1.179  -2.726 -20.181  0.00  0.00    -0.056 A 
ATOM     31 BR   UNL     1      -5.242  -3.374 -20.776  0.00  0.00    -0.050 Br
ENDBRANCH  24  25
ENDBRANCH   7  24
TORSDOF 6
ENDMDL
MODEL 3
REMARK VINA RESULT:    -9.125      4.794      8.930
REMARK INTER + INTRA:         -12.663
REMARK INTER:                 -12.158
REMARK INTRA:                  -0.504
REMARK UNBOUND:                -0.337
REMARK  Name = 22a.sdf
REMARK  7 active torsions:
REMARK  status: ('A' for Active; 'I' for Inactive)
REMARK    1  A    between atoms: N_7  and  C_12
REMARK    2  A    between atoms: C_9  and  C_10
REMARK    3  A    between atoms: N_11  and  N_19
REMARK    4  A    between atoms: C_12  and  C_13
REMARK    5  A    between atoms: C_20  and  C_22
REMARK    6  A    between atoms: C_25  and  O_29
REMARK    7  A    between atoms: O_29  and  C_30
REMARK                            x       y       z     vdW  Elec       q    Type
REMARK                         _______ _______ _______ _____ _____    ______ ____
ROOT
ATOM      1  C   UNL     1       4.766  -2.001 -17.846  0.00  0.00    -0.061 A 
ATOM      2  C   UNL     1       6.099  -2.032 -18.235  0.00  0.00    -0.060 A 
ATOM      3  C   UNL     1       6.462  -2.424 -19.527  0.00  0.00    -0.038 A 
ATOM      4  C   UNL     1       5.444  -2.779 -20.430  0.00  0.00    +0.050 A 
ATOM      5  C   UNL     1       4.089  -2.709 -20.074  0.00  0.00    +0.009 A 
ATOM      6  C   UNL     1       3.755  -2.328 -18.755  0.00  0.00    -0.052 A 
ATOM      7  N   UNL     1       5.493  -3.244 -21.731  0.00  0.00    -0.342 N 
ATOM      8  C   UNL     1       4.218  -3.390 -22.220  0.00  0.00    +0.015 A 
ATOM      9  C   UNL     1       3.318  -3.060 -21.226  0.00  0.00    +0.020 A 
ENDROOT
BRANCH   9  10
ATOM     10  C   UNL     1       1.876  -3.070 -21.346  0.00  0.00    +0.055 C 
ATOM     11  N   UNL     1       1.142  -3.141 -20.280  0.00  0.00    -0.187 NA
BRANCH  11  12
ATOM     12  N   UNL     1      -0.212  -3.155 -20.481  0.00  0.00    -0.203 N 
ATOM     13  C   UNL     1      -0.957  -2.029 -20.161  0.00  0.00    +0.263 C 
ATOM     14  O   UNL     1      -0.501  -0.982 -19.714  0.00  0.00    -0.268 OA
ATOM     15  H   UNL     1      -0.654  -3.954 -20.849  0.00  0.00    +0.000 HD
BRANCH  13  16
ATOM     16  C   UNL     1      -2.423  -2.116 -20.435  0.00  0.00    +0.039 A 
ATOM     17  C   UNL     1      -3.087  -1.218 -21.277  0.00  0.00    -0.046 A 
ATOM     18  C   UNL     1      -4.466  -1.347 -21.480  0.00  0.00    -0.019 A 
ATOM     19  C   UNL     1      -5.188  -2.378 -20.873  0.00  0.00    +0.120 A 
ATOM     20  C   UNL     1      -4.523  -3.286 -20.050  0.00  0.00    -0.019 A 
ATOM     21  C   UNL     1      -3.145  -3.156 -19.835  0.00  0.00    -0.046 A 
BRANCH  19  22
ATOM     22  O   UNL     1      -6.534  -2.364 -21.115  0.00  0.00    -0.495 OA
ATOM     23  C   UNL     1      -6.937  -1.986 -22.425  0.00  0.00    +0.079 C 
ENDBRANCH  19  22
ENDBRANCH  13  16
ENDBRANCH  11  12
ENDBRANCH   9  10
BRANCH   7  24
ATOM     24  C   UNL     1       6.697  -3.632 -22.466  0.00  0.00    +0.048 C 
BRANCH  24  25
ATOM     25  C   UNL     1       6.459  -4.850 -23.322  0.00  0.00    -0.028 A 
ATOM     26  C   UNL     1       6.293  -4.726 -24.709  0.00  0.00    -0.056 A 
ATOM     27  C   UNL     1       5.954  -5.836 -25.486  0.00  0.00    -0.047 A 
ATOM     28  C   UNL     1       5.794  -7.080 -24.881  0.00  0.00    +0.018 A 
ATOM     29  C   UNL     1       6.013  -7.233 -23.514  0.00  0.00    -0.047 A 
ATOM     30  C   UNL     1       6.346  -6.121 -22.737  0.00  0.00    -0.056 A 
ATOM     31 BR   UNL     1       5.240  -8.561 -25.917  0.00  0.00    -0.050 Br
ENDBRANCH  24  25
ENDBRANCH   7  24
TORSDOF 6
ENDMDL
