MODEL 1
REMARK VINA RESULT:    -9.841      0.000      0.000
REMARK INTER + INTRA:         -14.944
REMARK INTER:                 -13.868
REMARK INTRA:                  -1.076
REMARK UNBOUND:                -1.076
REMARK  Name = 23c.sdf
REMARK  9 active torsions:
REMARK  status: ('A' for Active; 'I' for Inactive)
REMARK    1  A    between atoms: N_7  and  C_12
REMARK    2  A    between atoms: C_9  and  C_10
REMARK    3  A    between atoms: N_11  and  N_19
REMARK    4  A    between atoms: C_12  and  C_13
REMARK    5  A    between atoms: C_20  and  C_22
REMARK    6  A    between atoms: C_24  and  O_30
REMARK    7  A    between atoms: C_25  and  O_29
REMARK    8  A    between atoms: O_29  and  C_32
REMARK    9  A    between atoms: O_30  and  C_31
REMARK                            x       y       z     vdW  Elec       q    Type
REMARK                         _______ _______ _______ _____ _____    ______ ____
ROOT
ATOM      1  C   UNL     1       0.447   0.519 -20.856  0.00  0.00    -0.061 A 
ATOM      2  C   UNL     1      -0.840   0.857 -20.461  0.00  0.00    -0.060 A 
ATOM      3  C   UNL     1      -1.851  -0.108 -20.400  0.00  0.00    -0.038 A 
ATOM      4  C   UNL     1      -1.530  -1.433 -20.742  0.00  0.00    +0.050 A 
ATOM      5  C   UNL     1      -0.228  -1.805 -21.102  0.00  0.00    +0.009 A 
ATOM      6  C   UNL     1       0.768  -0.805 -21.170  0.00  0.00    -0.052 A 
ATOM      7  N   UNL     1      -2.310  -2.573 -20.819  0.00  0.00    -0.342 N 
ATOM      8  C   UNL     1      -1.524  -3.651 -21.144  0.00  0.00    +0.015 A 
ATOM      9  C   UNL     1      -0.225  -3.219 -21.319  0.00  0.00    +0.020 A 
ENDROOT
BRANCH   9  10
ATOM     10  C   UNL     1       0.910  -4.052 -21.657  0.00  0.00    +0.055 C 
ATOM     11  N   UNL     1       1.410  -4.003 -22.849  0.00  0.00    -0.187 NA
BRANCH  11  12
ATOM     12  N   UNL     1       2.478  -4.828 -23.084  0.00  0.00    -0.203 N 
ATOM     13  C   UNL     1       3.767  -4.317 -23.007  0.00  0.00    +0.263 C 
ATOM     14  O   UNL     1       4.052  -3.158 -22.719  0.00  0.00    -0.268 OA
ATOM     15  H   UNL     1       2.333  -5.777 -23.306  0.00  0.00    +0.000 HD
BRANCH  13  16
ATOM     16  C   UNL     1       4.869  -5.291 -23.251  0.00  0.00    +0.042 A 
ATOM     17  C   UNL     1       6.158  -5.102 -22.735  0.00  0.00    -0.004 A 
ATOM     18  C   UNL     1       7.171  -6.028 -23.018  0.00  0.00    +0.162 A 
ATOM     19  C   UNL     1       6.886  -7.166 -23.803  0.00  0.00    +0.162 A 
ATOM     20  C   UNL     1       5.586  -7.369 -24.277  0.00  0.00    -0.016 A 
ATOM     21  C   UNL     1       4.584  -6.434 -24.003  0.00  0.00    -0.046 A 
BRANCH  19  22
ATOM     22  O   UNL     1       7.940  -8.010 -24.047  0.00  0.00    -0.491 OA
ATOM     23  C   UNL     1       7.695  -9.164 -24.838  0.00  0.00    +0.079 C 
ENDBRANCH  19  22
BRANCH  18  24
ATOM     24  O   UNL     1       8.468  -5.912 -22.580  0.00  0.00    -0.491 OA
ATOM     25  C   UNL     1       8.696  -5.806 -21.183  0.00  0.00    +0.079 C 
ENDBRANCH  18  24
ENDBRANCH  13  16
ENDBRANCH  11  12
ENDBRANCH   9  10
BRANCH   7  26
ATOM     26  C   UNL     1      -3.765  -2.637 -20.685  0.00  0.00    +0.048 C 
BRANCH  26  27
ATOM     27  C   UNL     1      -4.186  -2.726 -19.239  0.00  0.00    -0.028 A 
ATOM     28  C   UNL     1      -3.945  -3.890 -18.495  0.00  0.00    -0.055 A 
ATOM     29  C   UNL     1      -4.435  -4.014 -17.193  0.00  0.00    -0.043 A 
ATOM     30  C   UNL     1      -5.157  -2.970 -16.622  0.00  0.00    +0.041 A 
ATOM     31  C   UNL     1      -5.361  -1.786 -17.328  0.00  0.00    -0.043 A 
ATOM     32  C   UNL     1      -4.876  -1.664 -18.633  0.00  0.00    -0.055 A 
ATOM     33 CL   UNL     1      -5.819  -3.152 -15.045  0.00  0.00    -0.084 Cl
ENDBRANCH  26  27
ENDBRANCH   7  26
TORSDOF 7
ENDMDL
MODEL 2
REMARK VINA RESULT:    -9.121      3.822      5.339
REMARK INTER + INTRA:         -13.929
REMARK INTER:                 -13.413
REMARK INTRA:                  -0.516
REMARK UNBOUND:                -1.076
REMARK  Name = 23c.sdf
REMARK  9 active torsions:
REMARK  status: ('A' for Active; 'I' for Inactive)
REMARK    1  A    between atoms: N_7  and  C_12
REMARK    2  A    between atoms: C_9  and  C_10
REMARK    3  A    between atoms: N_11  and  N_19
REMARK    4  A    between atoms: C_12  and  C_13
REMARK    5  A    between atoms: C_20  and  C_22
REMARK    6  A    between atoms: C_24  and  O_30
REMARK    7  A    between atoms: C_25  and  O_29
REMARK    8  A    between atoms: O_29  and  C_32
REMARK    9  A    between atoms: O_30  and  C_31
REMARK                            x       y       z     vdW  Elec       q    Type
REMARK                         _______ _______ _______ _____ _____    ______ ____
ROOT
ATOM      1  C   UNL     1       5.250  -2.506 -20.820  0.00  0.00    -0.061 A 
ATOM      2  C   UNL     1       4.720  -1.767 -19.770  0.00  0.00    -0.060 A 
ATOM      3  C   UNL     1       3.337  -1.624 -19.618  0.00  0.00    -0.038 A 
ATOM      4  C   UNL     1       2.494  -2.255 -20.548  0.00  0.00    +0.050 A 
ATOM      5  C   UNL     1       3.006  -3.041 -21.589  0.00  0.00    +0.009 A 
ATOM      6  C   UNL     1       4.407  -3.153 -21.728  0.00  0.00    -0.052 A 
ATOM      7  N   UNL     1       1.117  -2.259 -20.680  0.00  0.00    -0.342 N 
ATOM      8  C   UNL     1       0.753  -3.077 -21.721  0.00  0.00    +0.015 A 
ATOM      9  C   UNL     1       1.895  -3.589 -22.306  0.00  0.00    +0.020 A 
ENDROOT
BRANCH   9  10
ATOM     10  C   UNL     1       1.939  -4.503 -23.427  0.00  0.00    +0.055 C 
ATOM     11  N   UNL     1       1.745  -5.767 -23.236  0.00  0.00    -0.187 NA
BRANCH  11  12
ATOM     12  N   UNL     1       1.810  -6.559 -24.351  0.00  0.00    -0.203 N 
ATOM     13  C   UNL     1       3.025  -7.119 -24.721  0.00  0.00    +0.263 C 
ATOM     14  O   UNL     1       4.083  -6.983 -24.111  0.00  0.00    -0.268 OA
ATOM     15  H   UNL     1       1.002  -6.730 -24.887  0.00  0.00    +0.000 HD
BRANCH  13  16
ATOM     16  C   UNL     1       3.000  -7.989 -25.931  0.00  0.00    +0.042 A 
ATOM     17  C   UNL     1       1.862  -8.106 -26.741  0.00  0.00    -0.004 A 
ATOM     18  C   UNL     1       1.875  -8.962 -27.851  0.00  0.00    +0.162 A 
ATOM     19  C   UNL     1       3.042  -9.690 -28.166  0.00  0.00    +0.162 A 
ATOM     20  C   UNL     1       4.187  -9.532 -27.378  0.00  0.00    -0.016 A 
ATOM     21  C   UNL     1       4.163  -8.688 -26.266  0.00  0.00    -0.046 A 
BRANCH  19  22
ATOM     22  O   UNL     1       2.961 -10.519 -29.258  0.00  0.00    -0.491 OA
ATOM     23  C   UNL     1       3.779 -11.680 -29.270  0.00  0.00    +0.079 C 
ENDBRANCH  19  22
BRANCH  18  24
ATOM     24  O   UNL     1       0.800  -9.163 -28.684  0.00  0.00    -0.491 OA
ATOM     25  C   UNL     1       0.381  -8.083 -29.505  0.00  0.00    +0.079 C 
ENDBRANCH  18  24
ENDBRANCH  13  16
ENDBRANCH  11  12
ENDBRANCH   9  10
BRANCH   7  26
ATOM     26  C   UNL     1       0.171  -1.448 -19.915  0.00  0.00    +0.048 C 
BRANCH  26  27
ATOM     27  C   UNL     1      -1.255  -1.721 -20.325  0.00  0.00    -0.028 A 
ATOM     28  C   UNL     1      -2.027  -0.720 -20.932  0.00  0.00    -0.055 A 
ATOM     29  C   UNL     1      -3.378  -0.936 -21.208  0.00  0.00    -0.043 A 
ATOM     30  C   UNL     1      -3.963  -2.159 -20.892  0.00  0.00    +0.041 A 
ATOM     31  C   UNL     1      -3.198  -3.183 -20.337  0.00  0.00    -0.043 A 
ATOM     32  C   UNL     1      -1.847  -2.965 -20.056  0.00  0.00    -0.055 A 
ATOM     33 CL   UNL     1      -5.644  -2.400 -21.169  0.00  0.00    -0.084 Cl
ENDBRANCH  26  27
ENDBRANCH   7  26
TORSDOF 7
ENDMDL
MODEL 3
REMARK VINA RESULT:    -8.737      2.931      4.075
REMARK INTER + INTRA:         -13.388
REMARK INTER:                 -12.596
REMARK INTRA:                  -0.792
REMARK UNBOUND:                -1.076
REMARK  Name = 23c.sdf
REMARK  9 active torsions:
REMARK  status: ('A' for Active; 'I' for Inactive)
REMARK    1  A    between atoms: N_7  and  C_12
REMARK    2  A    between atoms: C_9  and  C_10
REMARK    3  A    between atoms: N_11  and  N_19
REMARK    4  A    between atoms: C_12  and  C_13
REMARK    5  A    between atoms: C_20  and  C_22
REMARK    6  A    between atoms: C_24  and  O_30
REMARK    7  A    between atoms: C_25  and  O_29
REMARK    8  A    between atoms: O_29  and  C_32
REMARK    9  A    between atoms: O_30  and  C_31
REMARK                            x       y       z     vdW  Elec       q    Type
REMARK                         _______ _______ _______ _____ _____    ______ ____
ROOT
ATOM      1  C   UNL     1       4.601  -2.436 -18.070  0.00  0.00    -0.061 A 
ATOM      2  C   UNL     1       3.617  -1.690 -17.434  0.00  0.00    -0.060 A 
ATOM      3  C   UNL     1       2.448  -1.321 -18.106  0.00  0.00    -0.038 A 
ATOM      4  C   UNL     1       2.287  -1.729 -19.441  0.00  0.00    +0.050 A 
ATOM      5  C   UNL     1       3.247  -2.518 -20.089  0.00  0.00    +0.009 A 
ATOM      6  C   UNL     1       4.425  -2.862 -19.390  0.00  0.00    -0.052 A 
ATOM      7  N   UNL     1       1.281  -1.484 -20.359  0.00  0.00    -0.342 N 
ATOM      8  C   UNL     1       1.548  -2.152 -21.529  0.00  0.00    +0.015 A 
ATOM      9  C   UNL     1       2.754  -2.813 -21.399  0.00  0.00    +0.020 A 
ENDROOT
BRANCH   9  10
ATOM     10  C   UNL     1       3.382  -3.640 -22.407  0.00  0.00    +0.055 C 
ATOM     11  N   UNL     1       2.672  -4.131 -23.370  0.00  0.00    -0.187 NA
BRANCH  11  12
ATOM     12  N   UNL     1       3.346  -4.907 -24.276  0.00  0.00    -0.203 N 
ATOM     13  C   UNL     1       3.205  -6.288 -24.232  0.00  0.00    +0.263 C 
ATOM     14  O   UNL     1       2.493  -6.902 -23.442  0.00  0.00    -0.268 OA
ATOM     15  H   UNL     1       3.926  -4.489 -24.953  0.00  0.00    +0.000 HD
BRANCH  13  16
ATOM     16  C   UNL     1       3.952  -7.051 -25.272  0.00  0.00    +0.042 A 
ATOM     17  C   UNL     1       5.075  -7.829 -24.962  0.00  0.00    -0.004 A 
ATOM     18  C   UNL     1       5.765  -8.504 -25.978  0.00  0.00    +0.162 A 
ATOM     19  C   UNL     1       5.313  -8.419 -27.313  0.00  0.00    +0.162 A 
ATOM     20  C   UNL     1       4.165  -7.675 -27.606  0.00  0.00    -0.016 A 
ATOM     21  C   UNL     1       3.490  -6.995 -26.590  0.00  0.00    -0.046 A 
BRANCH  19  22
ATOM     22  O   UNL     1       6.059  -9.094 -28.247  0.00  0.00    -0.491 OA
ATOM     23  C   UNL     1       5.437 -10.166 -28.942  0.00  0.00    +0.079 C 
ENDBRANCH  19  22
BRANCH  18  24
ATOM     24  O   UNL     1       6.890  -9.266 -25.774  0.00  0.00    -0.491 OA
ATOM     25  C   UNL     1       8.067  -8.612 -25.323  0.00  0.00    +0.079 C 
ENDBRANCH  18  24
ENDBRANCH  13  16
ENDBRANCH  11  12
ENDBRANCH   9  10
BRANCH   7  26
ATOM     26  C   UNL     1       0.149  -0.576 -20.181  0.00  0.00    +0.048 C 
BRANCH  26  27
ATOM     27  C   UNL     1      -1.169  -1.294 -20.337  0.00  0.00    -0.028 A 
ATOM     28  C   UNL     1      -1.266  -2.670 -20.086  0.00  0.00    -0.055 A 
ATOM     29  C   UNL     1      -2.456  -3.355 -20.339  0.00  0.00    -0.043 A 
ATOM     30  C   UNL     1      -3.561  -2.666 -20.832  0.00  0.00    +0.041 A 
ATOM     31  C   UNL     1      -3.498  -1.289 -21.038  0.00  0.00    -0.043 A 
ATOM     32  C   UNL     1      -2.305  -0.605 -20.790  0.00  0.00    -0.055 A 
ATOM     33 CL   UNL     1      -5.004  -3.523 -21.209  0.00  0.00    -0.084 Cl
ENDBRANCH  26  27
ENDBRANCH   7  26
TORSDOF 7
ENDMDL
