MODEL 1
REMARK VINA RESULT:    -9.892      0.000      0.000
REMARK INTER + INTRA:         -13.402
REMARK INTER:                 -13.073
REMARK INTRA:                  -0.329
REMARK UNBOUND:                -0.329
REMARK  Name = 27a.sdf
REMARK  6 active torsions:
REMARK  status: ('A' for Active; 'I' for Inactive)
REMARK    1  A    between atoms: N_7  and  C_10
REMARK    2  A    between atoms: C_9  and  C_18
REMARK    3  A    between atoms: C_10  and  C_11
REMARK    4  A    between atoms: N_19  and  N_20
REMARK    5  A    between atoms: C_21  and  C_23
REMARK    6  A    between atoms: C_26  and  N_29
REMARK                            x       y       z     vdW  Elec       q    Type
REMARK                         _______ _______ _______ _____ _____    ______ ____
ROOT
ATOM      1  C   UNL     1       5.449  -2.557 -21.296  0.00  0.00    -0.061 A 
ATOM      2  C   UNL     1       4.999  -1.847 -20.191  0.00  0.00    -0.060 A 
ATOM      3  C   UNL     1       3.632  -1.741 -19.913  0.00  0.00    -0.038 A 
ATOM      4  C   UNL     1       2.722  -2.378 -20.772  0.00  0.00    +0.050 A 
ATOM      5  C   UNL     1       3.156  -3.139 -21.866  0.00  0.00    +0.009 A 
ATOM      6  C   UNL     1       4.541  -3.212 -22.134  0.00  0.00    -0.052 A 
ATOM      7  N   UNL     1       1.340  -2.414 -20.781  0.00  0.00    -0.342 N 
ATOM      8  C   UNL     1       0.905  -3.230 -21.795  0.00  0.00    +0.015 A 
ATOM      9  C   UNL     1       1.999  -3.708 -22.486  0.00  0.00    +0.020 A 
ENDROOT
BRANCH   9  10
ATOM     10  C   UNL     1       1.968  -4.612 -23.618  0.00  0.00    +0.055 C 
ATOM     11  N   UNL     1       1.818  -5.882 -23.427  0.00  0.00    -0.187 NA
BRANCH  11  12
ATOM     12  N   UNL     1       1.814  -6.661 -24.550  0.00  0.00    -0.203 N 
ATOM     13  C   UNL     1       2.985  -7.297 -24.942  0.00  0.00    +0.263 C 
ATOM     14  O   UNL     1       4.061  -7.234 -24.351  0.00  0.00    -0.268 OA
ATOM     15  H   UNL     1       0.988  -6.771 -25.075  0.00  0.00    +0.000 HD
BRANCH  13  16
ATOM     16  C   UNL     1       2.879  -8.142 -26.168  0.00  0.00    +0.038 A 
ATOM     17  C   UNL     1       3.924  -8.959 -26.619  0.00  0.00    -0.048 A 
ATOM     18  C   UNL     1       3.761  -9.729 -27.779  0.00  0.00    -0.040 A 
ATOM     19  C   UNL     1       2.577  -9.672 -28.520  0.00  0.00    +0.025 A 
ATOM     20  C   UNL     1       1.511  -8.924 -28.017  0.00  0.00    -0.040 A 
ATOM     21  C   UNL     1       1.663  -8.150 -26.862  0.00  0.00    -0.048 A 
BRANCH  19  22
ATOM     22  N   UNL     1       2.382 -10.533 -29.604  0.00  0.00    -0.358 N 
ATOM     23  H   UNL     1       1.920 -10.212 -30.412  0.00  0.00    +0.000 HD
ATOM     24  H   UNL     1       2.709 -11.461 -29.561  0.00  0.00    +0.000 HD
ENDBRANCH  19  22
ENDBRANCH  13  16
ENDBRANCH  11  12
ENDBRANCH   9  10
BRANCH   7  25
ATOM     25  C   UNL     1       0.447  -1.622 -19.935  0.00  0.00    +0.048 C 
BRANCH  25  26
ATOM     26  C   UNL     1      -0.999  -1.801 -20.325  0.00  0.00    -0.028 A 
ATOM     27  C   UNL     1      -1.744  -0.721 -20.821  0.00  0.00    -0.056 A 
ATOM     28  C   UNL     1      -3.111  -0.856 -21.070  0.00  0.00    -0.047 A 
ATOM     29  C   UNL     1      -3.738  -2.078 -20.839  0.00  0.00    +0.018 A 
ATOM     30  C   UNL     1      -3.003  -3.177 -20.402  0.00  0.00    -0.047 A 
ATOM     31  C   UNL     1      -1.636  -3.039 -20.148  0.00  0.00    -0.056 A 
ATOM     32 BR   UNL     1      -5.606  -2.232 -21.083  0.00  0.00    -0.050 Br
ENDBRANCH  25  26
ENDBRANCH   7  25
TORSDOF 6
ENDMDL
MODEL 2
REMARK VINA RESULT:    -9.654      4.327      9.499
REMARK INTER + INTRA:         -13.086
REMARK INTER:                 -12.248
REMARK INTRA:                  -0.838
REMARK UNBOUND:                -0.329
REMARK  Name = 27a.sdf
REMARK  6 active torsions:
REMARK  status: ('A' for Active; 'I' for Inactive)
REMARK    1  A    between atoms: N_7  and  C_10
REMARK    2  A    between atoms: C_9  and  C_18
REMARK    3  A    between atoms: C_10  and  C_11
REMARK    4  A    between atoms: N_19  and  N_20
REMARK    5  A    between atoms: C_21  and  C_23
REMARK    6  A    between atoms: C_26  and  N_29
REMARK                            x       y       z     vdW  Elec       q    Type
REMARK                         _______ _______ _______ _____ _____    ______ ____
ROOT
ATOM      1  C   UNL     1       4.735  -2.470 -20.710  0.00  0.00    -0.061 A 
ATOM      2  C   UNL     1       5.247  -2.577 -21.997  0.00  0.00    -0.060 A 
ATOM      3  C   UNL     1       4.457  -3.055 -23.048  0.00  0.00    -0.038 A 
ATOM      4  C   UNL     1       3.127  -3.416 -22.775  0.00  0.00    +0.050 A 
ATOM      5  C   UNL     1       2.576  -3.272 -21.495  0.00  0.00    +0.009 A 
ATOM      6  C   UNL     1       3.403  -2.805 -20.449  0.00  0.00    -0.052 A 
ATOM      7  N   UNL     1       2.139  -3.952 -23.580  0.00  0.00    -0.342 N 
ATOM      8  C   UNL     1       0.974  -4.073 -22.864  0.00  0.00    +0.015 A 
ATOM      9  C   UNL     1       1.199  -3.653 -21.569  0.00  0.00    +0.020 A 
ENDROOT
BRANCH   9  10
ATOM     10  C   UNL     1       0.220  -3.612 -20.501  0.00  0.00    +0.055 C 
ATOM     11  N   UNL     1      -1.020  -3.876 -20.752  0.00  0.00    -0.187 NA
BRANCH  11  12
ATOM     12  N   UNL     1      -1.876  -3.800 -19.689  0.00  0.00    -0.203 N 
ATOM     13  C   UNL     1      -2.910  -2.873 -19.712  0.00  0.00    +0.263 C 
ATOM     14  O   UNL     1      -3.147  -2.093 -20.632  0.00  0.00    -0.268 OA
ATOM     15  H   UNL     1      -1.761  -4.398 -18.915  0.00  0.00    +0.000 HD
BRANCH  13  16
ATOM     16  C   UNL     1      -3.806  -2.877 -18.517  0.00  0.00    +0.038 A 
ATOM     17  C   UNL     1      -4.739  -1.864 -18.264  0.00  0.00    -0.048 A 
ATOM     18  C   UNL     1      -5.550  -1.927 -17.123  0.00  0.00    -0.040 A 
ATOM     19  C   UNL     1      -5.423  -2.974 -16.206  0.00  0.00    +0.025 A 
ATOM     20  C   UNL     1      -4.553  -4.023 -16.510  0.00  0.00    -0.040 A 
ATOM     21  C   UNL     1      -3.737  -3.970 -17.645  0.00  0.00    -0.048 A 
BRANCH  19  22
ATOM     22  N   UNL     1      -6.318  -3.089 -15.138  0.00  0.00    -0.358 N 
ATOM     23  H   UNL     1      -6.427  -2.344 -14.505  0.00  0.00    +0.000 HD
ATOM     24  H   UNL     1      -6.840  -3.916 -15.021  0.00  0.00    +0.000 HD
ENDBRANCH  19  22
ENDBRANCH  13  16
ENDBRANCH  11  12
ENDBRANCH   9  10
BRANCH   7  25
ATOM     25  C   UNL     1       2.306  -4.438 -24.950  0.00  0.00    +0.048 C 
BRANCH  25  26
ATOM     26  C   UNL     1       3.407  -5.463 -25.050  0.00  0.00    -0.028 A 
ATOM     27  C   UNL     1       3.412  -6.591 -24.216  0.00  0.00    -0.056 A 
ATOM     28  C   UNL     1       4.491  -7.477 -24.226  0.00  0.00    -0.047 A 
ATOM     29  C   UNL     1       5.565  -7.248 -25.083  0.00  0.00    +0.018 A 
ATOM     30  C   UNL     1       5.551  -6.166 -25.960  0.00  0.00    -0.047 A 
ATOM     31  C   UNL     1       4.473  -5.277 -25.944  0.00  0.00    -0.056 A 
ATOM     32 BR   UNL     1       7.067  -8.394 -25.027  0.00  0.00    -0.050 Br
ENDBRANCH  25  26
ENDBRANCH   7  25
TORSDOF 6
ENDMDL
MODEL 3
REMARK VINA RESULT:    -9.644      2.931      5.375
REMARK INTER + INTRA:         -13.073
REMARK INTER:                 -12.492
REMARK INTRA:                  -0.582
REMARK UNBOUND:                -0.329
REMARK  Name = 27a.sdf
REMARK  6 active torsions:
REMARK  status: ('A' for Active; 'I' for Inactive)
REMARK    1  A    between atoms: N_7  and  C_10
REMARK    2  A    between atoms: C_9  and  C_18
REMARK    3  A    between atoms: C_10  and  C_11
REMARK    4  A    between atoms: N_19  and  N_20
REMARK    5  A    between atoms: C_21  and  C_23
REMARK    6  A    between atoms: C_26  and  N_29
REMARK                            x       y       z     vdW  Elec       q    Type
REMARK                         _______ _______ _______ _____ _____    ______ ____
ROOT
ATOM      1  C   UNL     1      -1.709  -2.805 -20.777  0.00  0.00    -0.061 A 
ATOM      2  C   UNL     1      -1.300  -1.825 -19.882  0.00  0.00    -0.060 A 
ATOM      3  C   UNL     1       0.050  -1.478 -19.764  0.00  0.00    -0.038 A 
ATOM      4  C   UNL     1       0.985  -2.136 -20.580  0.00  0.00    +0.050 A 
ATOM      5  C   UNL     1       0.589  -3.094 -21.523  0.00  0.00    +0.009 A 
ATOM      6  C   UNL     1      -0.779  -3.438 -21.606  0.00  0.00    -0.052 A 
ATOM      7  N   UNL     1       2.362  -2.042 -20.656  0.00  0.00    -0.342 N 
ATOM      8  C   UNL     1       2.826  -2.851 -21.664  0.00  0.00    +0.015 A 
ATOM      9  C   UNL     1       1.758  -3.513 -22.233  0.00  0.00    +0.020 A 
ENDROOT
BRANCH   9  10
ATOM     10  C   UNL     1       1.822  -4.450 -23.338  0.00  0.00    +0.055 C 
ATOM     11  N   UNL     1       1.634  -5.711 -23.126  0.00  0.00    -0.187 NA
BRANCH  11  12
ATOM     12  N   UNL     1       1.726  -6.523 -24.221  0.00  0.00    -0.203 N 
ATOM     13  C   UNL     1       2.963  -7.042 -24.583  0.00  0.00    +0.263 C 
ATOM     14  O   UNL     1       4.020  -6.844 -23.987  0.00  0.00    -0.268 OA
ATOM     15  H   UNL     1       0.923  -6.740 -24.748  0.00  0.00    +0.000 HD
BRANCH  13  16
ATOM     16  C   UNL     1       2.962  -7.934 -25.780  0.00  0.00    +0.038 A 
ATOM     17  C   UNL     1       4.059  -8.730 -26.134  0.00  0.00    -0.048 A 
ATOM     18  C   UNL     1       3.995  -9.546 -27.271  0.00  0.00    -0.040 A 
ATOM     19  C   UNL     1       2.858  -9.558 -28.085  0.00  0.00    +0.025 A 
ATOM     20  C   UNL     1       1.739  -8.830 -27.678  0.00  0.00    -0.040 A 
ATOM     21  C   UNL     1       1.792  -8.011 -26.545  0.00  0.00    -0.048 A 
BRANCH  19  22
ATOM     22  N   UNL     1       2.760 -10.464 -29.146  0.00  0.00    -0.358 N 
ATOM     23  H   UNL     1       2.199 -10.251 -29.925  0.00  0.00    +0.000 HD
ATOM     24  H   UNL     1       3.254 -11.316 -29.113  0.00  0.00    +0.000 HD
ENDBRANCH  19  22
ENDBRANCH  13  16
ENDBRANCH  11  12
ENDBRANCH   9  10
BRANCH   7  25
ATOM     25  C   UNL     1       3.232  -1.301 -19.743  0.00  0.00    +0.048 C 
BRANCH  25  26
ATOM     26  C   UNL     1       4.595  -1.937 -19.628  0.00  0.00    -0.028 A 
ATOM     27  C   UNL     1       4.878  -2.834 -18.587  0.00  0.00    -0.056 A 
ATOM     28  C   UNL     1       6.171  -3.331 -18.411  0.00  0.00    -0.047 A 
ATOM     29  C   UNL     1       7.184  -2.946 -19.284  0.00  0.00    +0.018 A 
ATOM     30  C   UNL     1       6.909  -2.103 -20.358  0.00  0.00    -0.047 A 
ATOM     31  C   UNL     1       5.616  -1.601 -20.530  0.00  0.00    -0.056 A 
ATOM     32 BR   UNL     1       8.953  -3.542 -18.987  0.00  0.00    -0.050 Br
ENDBRANCH  25  26
ENDBRANCH   7  25
TORSDOF 6
ENDMDL
