MODEL 1
REMARK VINA RESULT:    -9.797      0.000      0.000
REMARK INTER + INTRA:         -13.324
REMARK INTER:                 -12.947
REMARK INTRA:                  -0.377
REMARK UNBOUND:                -0.377
REMARK  Name = 27c.sdf
REMARK  6 active torsions:
REMARK  status: ('A' for Active; 'I' for Inactive)
REMARK    1  A    between atoms: N_7  and  C_10
REMARK    2  A    between atoms: C_9  and  C_18
REMARK    3  A    between atoms: C_10  and  C_11
REMARK    4  A    between atoms: N_19  and  N_20
REMARK    5  A    between atoms: C_21  and  C_23
REMARK    6  A    between atoms: C_26  and  N_29
REMARK                            x       y       z     vdW  Elec       q    Type
REMARK                         _______ _______ _______ _____ _____    ______ ____
ROOT
ATOM      1  C   UNL     1       5.505  -2.506 -21.224  0.00  0.00    -0.061 A 
ATOM      2  C   UNL     1       5.054  -1.821 -20.103  0.00  0.00    -0.060 A 
ATOM      3  C   UNL     1       3.688  -1.735 -19.813  0.00  0.00    -0.038 A 
ATOM      4  C   UNL     1       2.778  -2.362 -20.682  0.00  0.00    +0.050 A 
ATOM      5  C   UNL     1       3.215  -3.104 -21.786  0.00  0.00    +0.009 A 
ATOM      6  C   UNL     1       4.598  -3.161 -22.063  0.00  0.00    -0.052 A 
ATOM      7  N   UNL     1       1.395  -2.398 -20.694  0.00  0.00    -0.342 N 
ATOM      8  C   UNL     1       0.962  -3.208 -21.716  0.00  0.00    +0.015 A 
ATOM      9  C   UNL     1       2.065  -3.672 -22.412  0.00  0.00    +0.020 A 
ENDROOT
BRANCH   9  10
ATOM     10  C   UNL     1       2.036  -4.572 -23.547  0.00  0.00    +0.055 C 
ATOM     11  N   UNL     1       1.823  -5.834 -23.365  0.00  0.00    -0.187 NA
BRANCH  11  12
ATOM     12  N   UNL     1       1.822  -6.614 -24.493  0.00  0.00    -0.203 N 
ATOM     13  C   UNL     1       2.987  -7.270 -24.870  0.00  0.00    +0.263 C 
ATOM     14  O   UNL     1       4.052  -7.225 -24.263  0.00  0.00    -0.268 OA
ATOM     15  H   UNL     1       1.003  -6.709 -25.030  0.00  0.00    +0.000 HD
BRANCH  13  16
ATOM     16  C   UNL     1       2.888  -8.122 -26.092  0.00  0.00    +0.038 A 
ATOM     17  C   UNL     1       3.927  -8.955 -26.519  0.00  0.00    -0.048 A 
ATOM     18  C   UNL     1       3.776  -9.726 -27.679  0.00  0.00    -0.040 A 
ATOM     19  C   UNL     1       2.608  -9.653 -28.444  0.00  0.00    +0.025 A 
ATOM     20  C   UNL     1       1.542  -8.890 -27.964  0.00  0.00    -0.040 A 
ATOM     21  C   UNL     1       1.684  -8.114 -26.807  0.00  0.00    -0.048 A 
BRANCH  19  22
ATOM     22  N   UNL     1       2.423 -10.509 -29.534  0.00  0.00    -0.358 N 
ATOM     23  H   UNL     1       1.681 -10.355 -30.162  0.00  0.00    +0.000 HD
ATOM     24  H   UNL     1       3.036 -11.267 -29.674  0.00  0.00    +0.000 HD
ENDBRANCH  19  22
ENDBRANCH  13  16
ENDBRANCH  11  12
ENDBRANCH   9  10
BRANCH   7  25
ATOM     25  C   UNL     1       0.495  -1.613 -19.848  0.00  0.00    +0.048 C 
BRANCH  25  26
ATOM     26  C   UNL     1      -0.944  -1.752 -20.281  0.00  0.00    -0.028 A 
ATOM     27  C   UNL     1      -1.626  -0.663 -20.845  0.00  0.00    -0.055 A 
ATOM     28  C   UNL     1      -2.994  -0.743 -21.109  0.00  0.00    -0.043 A 
ATOM     29  C   UNL     1      -3.685  -1.920 -20.831  0.00  0.00    +0.041 A 
ATOM     30  C   UNL     1      -3.009  -3.034 -20.343  0.00  0.00    -0.043 A 
ATOM     31  C   UNL     1      -1.641  -2.952 -20.071  0.00  0.00    -0.055 A 
ATOM     32 CL   UNL     1      -5.389  -1.984 -21.063  0.00  0.00    -0.084 Cl
ENDBRANCH  25  26
ENDBRANCH   7  25
TORSDOF 6
ENDMDL
MODEL 2
REMARK VINA RESULT:    -9.627      2.921      5.403
REMARK INTER + INTRA:         -13.099
REMARK INTER:                 -12.532
REMARK INTRA:                  -0.566
REMARK UNBOUND:                -0.377
REMARK  Name = 27c.sdf
REMARK  6 active torsions:
REMARK  status: ('A' for Active; 'I' for Inactive)
REMARK    1  A    between atoms: N_7  and  C_10
REMARK    2  A    between atoms: C_9  and  C_18
REMARK    3  A    between atoms: C_10  and  C_11
REMARK    4  A    between atoms: N_19  and  N_20
REMARK    5  A    between atoms: C_21  and  C_23
REMARK    6  A    between atoms: C_26  and  N_29
REMARK                            x       y       z     vdW  Elec       q    Type
REMARK                         _______ _______ _______ _____ _____    ______ ____
ROOT
ATOM      1  C   UNL     1      -1.428  -2.628 -20.777  0.00  0.00    -0.061 A 
ATOM      2  C   UNL     1      -0.980  -1.649 -19.899  0.00  0.00    -0.060 A 
ATOM      3  C   UNL     1       0.380  -1.338 -19.799  0.00  0.00    -0.038 A 
ATOM      4  C   UNL     1       1.289  -2.039 -20.611  0.00  0.00    +0.050 A 
ATOM      5  C   UNL     1       0.853  -2.989 -21.543  0.00  0.00    +0.009 A 
ATOM      6  C   UNL     1      -0.525  -3.293 -21.611  0.00  0.00    -0.052 A 
ATOM      7  N   UNL     1       2.669  -2.000 -20.691  0.00  0.00    -0.342 N 
ATOM      8  C   UNL     1       3.098  -2.830 -21.698  0.00  0.00    +0.015 A 
ATOM      9  C   UNL     1       1.997  -3.456 -22.257  0.00  0.00    +0.020 A 
ENDROOT
BRANCH   9  10
ATOM     10  C   UNL     1       2.022  -4.391 -23.362  0.00  0.00    +0.055 C 
ATOM     11  N   UNL     1       1.698  -5.628 -23.170  0.00  0.00    -0.187 NA
BRANCH  11  12
ATOM     12  N   UNL     1       1.759  -6.446 -24.268  0.00  0.00    -0.203 N 
ATOM     13  C   UNL     1       2.974  -7.011 -24.633  0.00  0.00    +0.263 C 
ATOM     14  O   UNL     1       4.035  -6.851 -24.038  0.00  0.00    -0.268 OA
ATOM     15  H   UNL     1       0.947  -6.632 -24.794  0.00  0.00    +0.000 HD
BRANCH  13  16
ATOM     16  C   UNL     1       2.942  -7.913 -25.823  0.00  0.00    +0.038 A 
ATOM     17  C   UNL     1       4.039  -8.686 -26.214  0.00  0.00    -0.048 A 
ATOM     18  C   UNL     1       3.949  -9.509 -27.345  0.00  0.00    -0.040 A 
ATOM     19  C   UNL     1       2.784  -9.545 -28.117  0.00  0.00    +0.025 A 
ATOM     20  C   UNL     1       1.665  -8.841 -27.669  0.00  0.00    -0.040 A 
ATOM     21  C   UNL     1       1.745  -8.015 -26.542  0.00  0.00    -0.048 A 
BRANCH  19  22
ATOM     22  N   UNL     1       2.666 -10.453 -29.174  0.00  0.00    -0.358 N 
ATOM     23  H   UNL     1       2.330 -11.363 -29.007  0.00  0.00    +0.000 HD
ATOM     24  H   UNL     1       2.919 -10.182 -30.086  0.00  0.00    +0.000 HD
ENDBRANCH  19  22
ENDBRANCH  13  16
ENDBRANCH  11  12
ENDBRANCH   9  10
BRANCH   7  25
ATOM     25  C   UNL     1       3.575  -1.295 -19.783  0.00  0.00    +0.048 C 
BRANCH  25  26
ATOM     26  C   UNL     1       4.889  -2.020 -19.630  0.00  0.00    -0.028 A 
ATOM     27  C   UNL     1       5.073  -2.952 -18.597  0.00  0.00    -0.055 A 
ATOM     28  C   UNL     1       6.331  -3.512 -18.363  0.00  0.00    -0.043 A 
ATOM     29  C   UNL     1       7.406  -3.161 -19.174  0.00  0.00    +0.041 A 
ATOM     30  C   UNL     1       7.225  -2.296 -20.249  0.00  0.00    -0.043 A 
ATOM     31  C   UNL     1       5.969  -1.729 -20.479  0.00  0.00    -0.055 A 
ATOM     32 CL   UNL     1       8.975  -3.774 -18.822  0.00  0.00    -0.084 Cl
ENDBRANCH  25  26
ENDBRANCH   7  25
TORSDOF 6
ENDMDL
MODEL 3
REMARK VINA RESULT:    -9.512      1.744      2.144
REMARK INTER + INTRA:         -12.948
REMARK INTER:                 -12.228
REMARK INTRA:                  -0.720
REMARK UNBOUND:                -0.377
REMARK  Name = 27c.sdf
REMARK  6 active torsions:
REMARK  status: ('A' for Active; 'I' for Inactive)
REMARK    1  A    between atoms: N_7  and  C_10
REMARK    2  A    between atoms: C_9  and  C_18
REMARK    3  A    between atoms: C_10  and  C_11
REMARK    4  A    between atoms: N_19  and  N_20
REMARK    5  A    between atoms: C_21  and  C_23
REMARK    6  A    between atoms: C_26  and  N_29
REMARK                            x       y       z     vdW  Elec       q    Type
REMARK                         _______ _______ _______ _____ _____    ______ ____
ROOT
ATOM      1  C   UNL     1       4.617  -2.684 -18.174  0.00  0.00    -0.061 A 
ATOM      2  C   UNL     1       3.611  -2.027 -17.478  0.00  0.00    -0.060 A 
ATOM      3  C   UNL     1       2.429  -1.639 -18.116  0.00  0.00    -0.038 A 
ATOM      4  C   UNL     1       2.278  -1.931 -19.484  0.00  0.00    +0.050 A 
ATOM      5  C   UNL     1       3.256  -2.643 -20.190  0.00  0.00    +0.009 A 
ATOM      6  C   UNL     1       4.446  -3.009 -19.523  0.00  0.00    -0.052 A 
ATOM      7  N   UNL     1       1.273  -1.626 -20.383  0.00  0.00    -0.342 N 
ATOM      8  C   UNL     1       1.553  -2.197 -21.601  0.00  0.00    +0.015 A 
ATOM      9  C   UNL     1       2.773  -2.844 -21.518  0.00  0.00    +0.020 A 
ENDROOT
BRANCH   9  10
ATOM     10  C   UNL     1       3.413  -3.589 -22.582  0.00  0.00    +0.055 C 
ATOM     11  N   UNL     1       2.695  -4.187 -23.475  0.00  0.00    -0.187 NA
BRANCH  11  12
ATOM     12  N   UNL     1       3.383  -4.877 -24.440  0.00  0.00    -0.203 N 
ATOM     13  C   UNL     1       3.457  -6.263 -24.367  0.00  0.00    +0.263 C 
ATOM     14  O   UNL     1       2.939  -6.953 -23.496  0.00  0.00    -0.268 OA
ATOM     15  H   UNL     1       3.820  -4.395 -25.179  0.00  0.00    +0.000 HD
BRANCH  13  16
ATOM     16  C   UNL     1       4.199  -6.934 -25.475  0.00  0.00    +0.038 A 
ATOM     17  C   UNL     1       4.980  -6.230 -26.397  0.00  0.00    -0.048 A 
ATOM     18  C   UNL     1       5.647  -6.919 -27.419  0.00  0.00    -0.040 A 
ATOM     19  C   UNL     1       5.519  -8.304 -27.557  0.00  0.00    +0.025 A 
ATOM     20  C   UNL     1       4.812  -9.009 -26.581  0.00  0.00    -0.040 A 
ATOM     21  C   UNL     1       4.141  -8.331 -25.556  0.00  0.00    -0.048 A 
BRANCH  19  22
ATOM     22  N   UNL     1       6.278  -8.991 -28.509  0.00  0.00    -0.358 N 
ATOM     23  H   UNL     1       7.135  -9.403 -28.252  0.00  0.00    +0.000 HD
ATOM     24  H   UNL     1       5.956  -9.065 -29.436  0.00  0.00    +0.000 HD
ENDBRANCH  19  22
ENDBRANCH  13  16
ENDBRANCH  11  12
ENDBRANCH   9  10
BRANCH   7  25
ATOM     25  C   UNL     1       0.135  -0.735 -20.150  0.00  0.00    +0.048 C 
BRANCH  25  26
ATOM     26  C   UNL     1      -1.180  -1.427 -20.409  0.00  0.00    -0.028 A 
ATOM     27  C   UNL     1      -2.284  -0.704 -20.886  0.00  0.00    -0.055 A 
ATOM     28  C   UNL     1      -3.539  -1.308 -20.985  0.00  0.00    -0.043 A 
ATOM     29  C   UNL     1      -3.693  -2.645 -20.629  0.00  0.00    +0.041 A 
ATOM     30  C   UNL     1      -2.594  -3.398 -20.226  0.00  0.00    -0.043 A 
ATOM     31  C   UNL     1      -1.339  -2.791 -20.119  0.00  0.00    -0.055 A 
ATOM     32 CL   UNL     1      -5.258  -3.360 -20.656  0.00  0.00    -0.084 Cl
ENDBRANCH  25  26
ENDBRANCH   7  25
TORSDOF 6
ENDMDL
