MODEL 1
REMARK VINA RESULT:    -6.966      0.000      0.000
REMARK INTER + INTRA:          -8.389
REMARK INTER:                  -8.187
REMARK INTRA:                  -0.201
REMARK UNBOUND:                -0.201
REMARK  Name = 5.sdf
REMARK  4 active torsions:
REMARK  status: ('A' for Active; 'I' for Inactive)
REMARK    1  A    between atoms: C_9  and  C_10
REMARK    2  A    between atoms: C_11  and  C_12
REMARK    3  A    between atoms: C_12  and  O_13
REMARK    4  A    between atoms: O_13  and  C_15
REMARK                            x       y       z     vdW  Elec       q    Type
REMARK                         _______ _______ _______ _____ _____    ______ ____
ROOT
ATOM      1  C   UNL     1       6.596  -1.969 -20.461  0.00  0.00    -0.061 A 
ATOM      2  C   UNL     1       7.057  -2.726 -19.386  0.00  0.00    -0.060 A 
ATOM      3  C   UNL     1       6.170  -3.186 -18.413  0.00  0.00    -0.038 A 
ATOM      4  C   UNL     1       4.818  -2.855 -18.555  0.00  0.00    +0.047 A 
ATOM      5  C   UNL     1       4.310  -2.098 -19.618  0.00  0.00    +0.007 A 
ATOM      6  C   UNL     1       5.234  -1.648 -20.588  0.00  0.00    -0.052 A 
ATOM      7  N   UNL     1       3.755  -3.182 -17.748  0.00  0.00    -0.360 N 
ATOM      8  C   UNL     1       2.598  -2.655 -18.250  0.00  0.00    +0.010 A 
ATOM      9  C   UNL     1       2.890  -1.970 -19.415  0.00  0.00    +0.000 A 
ATOM     10  H   UNL     1       3.818  -3.720 -16.925  0.00  0.00    +0.000 HD
ENDROOT
BRANCH   9  11
ATOM     11  C   UNL     1       1.915  -1.278 -20.226  0.00  0.00    -0.046 C 
ATOM     12  C   UNL     1       0.649  -1.031 -19.827  0.00  0.00    +0.023 C 
BRANCH  12  13
ATOM     13  C   UNL     1      -0.458  -0.347 -20.523  0.00  0.00    +0.332 C 
ATOM     14  O   UNL     1      -0.579   0.869 -20.453  0.00  0.00    -0.246 OA
BRANCH  13  15
ATOM     15  O   UNL     1      -1.281  -1.176 -21.208  0.00  0.00    -0.465 OA
ATOM     16  C   UNL     1      -1.652  -2.335 -20.449  0.00  0.00    +0.082 C 
ENDBRANCH  13  15
ENDBRANCH  12  13
ENDBRANCH   9  11
TORSDOF 3
ENDMDL
MODEL 2
REMARK VINA RESULT:    -6.934      1.791      2.656
REMARK INTER + INTRA:          -8.351
REMARK INTER:                  -8.104
REMARK INTRA:                  -0.247
REMARK UNBOUND:                -0.201
REMARK  Name = 5.sdf
REMARK  4 active torsions:
REMARK  status: ('A' for Active; 'I' for Inactive)
REMARK    1  A    between atoms: C_9  and  C_10
REMARK    2  A    between atoms: C_11  and  C_12
REMARK    3  A    between atoms: C_12  and  O_13
REMARK    4  A    between atoms: O_13  and  C_15
REMARK                            x       y       z     vdW  Elec       q    Type
REMARK                         _______ _______ _______ _____ _____    ______ ____
ROOT
ATOM      1  C   UNL     1       3.738  -2.192 -17.623  0.00  0.00    -0.061 A 
ATOM      2  C   UNL     1       4.987  -2.310 -18.229  0.00  0.00    -0.060 A 
ATOM      3  C   UNL     1       5.089  -2.591 -19.591  0.00  0.00    -0.038 A 
ATOM      4  C   UNL     1       3.902  -2.752 -20.314  0.00  0.00    +0.047 A 
ATOM      5  C   UNL     1       2.626  -2.642 -19.747  0.00  0.00    +0.007 A 
ATOM      6  C   UNL     1       2.556  -2.356 -18.366  0.00  0.00    -0.052 A 
ATOM      7  N   UNL     1       3.730  -3.026 -21.649  0.00  0.00    -0.360 N 
ATOM      8  C   UNL     1       2.399  -3.106 -21.949  0.00  0.00    +0.010 A 
ATOM      9  C   UNL     1       1.669  -2.873 -20.798  0.00  0.00    +0.000 A 
ATOM     10  H   UNL     1       4.461  -3.149 -22.297  0.00  0.00    +0.000 HD
ENDROOT
BRANCH   9  11
ATOM     11  C   UNL     1       0.226  -2.877 -20.728  0.00  0.00    -0.046 C 
ATOM     12  C   UNL     1      -0.527  -1.756 -20.731  0.00  0.00    +0.023 C 
BRANCH  12  13
ATOM     13  C   UNL     1      -1.991  -1.585 -20.666  0.00  0.00    +0.332 C 
ATOM     14  O   UNL     1      -2.492  -0.471 -20.754  0.00  0.00    -0.246 OA
BRANCH  13  15
ATOM     15  O   UNL     1      -2.679  -2.740 -20.504  0.00  0.00    -0.465 OA
ATOM     16  C   UNL     1      -3.609  -2.679 -19.414  0.00  0.00    +0.082 C 
ENDBRANCH  13  15
ENDBRANCH  12  13
ENDBRANCH   9  11
TORSDOF 3
ENDMDL
MODEL 3
REMARK VINA RESULT:    -6.874      3.605      5.138
REMARK INTER + INTRA:          -8.281
REMARK INTER:                  -8.016
REMARK INTRA:                  -0.265
REMARK UNBOUND:                -0.201
REMARK  Name = 5.sdf
REMARK  4 active torsions:
REMARK  status: ('A' for Active; 'I' for Inactive)
REMARK    1  A    between atoms: C_9  and  C_10
REMARK    2  A    between atoms: C_11  and  C_12
REMARK    3  A    between atoms: C_12  and  O_13
REMARK    4  A    between atoms: O_13  and  C_15
REMARK                            x       y       z     vdW  Elec       q    Type
REMARK                         _______ _______ _______ _____ _____    ______ ____
ROOT
ATOM      1  C   UNL     1       1.302  -3.229 -21.130  0.00  0.00    -0.061 A 
ATOM      2  C   UNL     1       2.283  -2.340 -20.697  0.00  0.00    -0.060 A 
ATOM      3  C   UNL     1       1.941  -1.046 -20.306  0.00  0.00    -0.038 A 
ATOM      4  C   UNL     1       0.592  -0.680 -20.369  0.00  0.00    +0.047 A 
ATOM      5  C   UNL     1      -0.427  -1.541 -20.796  0.00  0.00    +0.007 A 
ATOM      6  C   UNL     1      -0.049  -2.845 -21.184  0.00  0.00    -0.052 A 
ATOM      7  N   UNL     1       0.001   0.516 -20.041  0.00  0.00    -0.360 N 
ATOM      8  C   UNL     1      -1.348   0.453 -20.253  0.00  0.00    +0.010 A 
ATOM      9  C   UNL     1      -1.665  -0.808 -20.723  0.00  0.00    +0.000 A 
ATOM     10  H   UNL     1       0.481   1.307 -19.703  0.00  0.00    +0.000 HD
ENDROOT
BRANCH   9  11
ATOM     11  C   UNL     1      -3.000  -1.246 -21.060  0.00  0.00    -0.046 C 
ATOM     12  C   UNL     1      -3.724  -2.096 -20.300  0.00  0.00    +0.023 C 
BRANCH  12  13
ATOM     13  C   UNL     1      -5.083  -2.636 -20.496  0.00  0.00    +0.332 C 
ATOM     14  O   UNL     1      -5.885  -2.056 -21.217  0.00  0.00    -0.246 OA
BRANCH  13  15
ATOM     15  O   UNL     1      -5.328  -3.784 -19.821  0.00  0.00    -0.465 OA
ATOM     16  C   UNL     1      -4.702  -3.809 -18.531  0.00  0.00    +0.082 C 
ENDBRANCH  13  15
ENDBRANCH  12  13
ENDBRANCH   9  11
TORSDOF 3
ENDMDL
