MODEL 1
REMARK VINA RESULT:    -9.100      0.000      0.000
REMARK INTER + INTRA:         -12.494
REMARK INTER:                 -11.760
REMARK INTRA:                  -0.735
REMARK UNBOUND:                -0.735
REMARK  Name = 5c.sdf
REMARK  6 active torsions:
REMARK  status: ('A' for Active; 'I' for Inactive)
REMARK    1  A    between atoms: N_7  and  C_12
REMARK    2  A    between atoms: C_9  and  C_10
REMARK    3  A    between atoms: C_11  and  C_20
REMARK    4  A    between atoms: C_12  and  C_13
REMARK    5  A    between atoms: C_20  and  O_21
REMARK    6  A    between atoms: O_21  and  C_23
REMARK                            x       y       z     vdW  Elec       q    Type
REMARK                         _______ _______ _______ _____ _____    ______ ____
ROOT
ATOM      1  C   UNL     1       1.091  -4.913 -23.305  0.00  0.00    -0.061 A 
ATOM      2  C   UNL     1       2.332  -4.327 -23.087  0.00  0.00    -0.060 A 
ATOM      3  C   UNL     1       2.481  -3.278 -22.175  0.00  0.00    -0.038 A 
ATOM      4  C   UNL     1       1.345  -2.832 -21.476  0.00  0.00    +0.050 A 
ATOM      5  C   UNL     1       0.092  -3.434 -21.651  0.00  0.00    +0.007 A 
ATOM      6  C   UNL     1      -0.029  -4.482 -22.590  0.00  0.00    -0.052 A 
ATOM      7  N   UNL     1       1.176  -1.811 -20.558  0.00  0.00    -0.342 N 
ATOM      8  C   UNL     1      -0.128  -1.793 -20.113  0.00  0.00    +0.013 A 
ATOM      9  C   UNL     1      -0.824  -2.791 -20.760  0.00  0.00    +0.000 A 
ENDROOT
BRANCH   9  10
ATOM     10  C   UNL     1      -2.207  -3.125 -20.578  0.00  0.00    -0.046 C 
ATOM     11  C   UNL     1      -3.099  -2.407 -19.876  0.00  0.00    +0.023 C 
BRANCH  11  12
ATOM     12  C   UNL     1      -4.520  -2.763 -19.678  0.00  0.00    +0.332 C 
ATOM     13  O   UNL     1      -5.184  -3.258 -20.578  0.00  0.00    -0.246 OA
BRANCH  12  14
ATOM     14  O   UNL     1      -4.963  -2.487 -18.428  0.00  0.00    -0.465 OA
ATOM     15  C   UNL     1      -4.624  -3.490 -17.466  0.00  0.00    +0.082 C 
ENDBRANCH  12  14
ENDBRANCH  11  12
ENDBRANCH   9  10
BRANCH   7  16
ATOM     16  C   UNL     1       2.190  -0.835 -20.157  0.00  0.00    +0.048 C 
BRANCH  16  17
ATOM     17  C   UNL     1       3.375  -1.510 -19.512  0.00  0.00    -0.028 A 
ATOM     18  C   UNL     1       4.673  -1.290 -19.999  0.00  0.00    -0.055 A 
ATOM     19  C   UNL     1       5.749  -2.032 -19.508  0.00  0.00    -0.043 A 
ATOM     20  C   UNL     1       5.538  -2.983 -18.514  0.00  0.00    +0.041 A 
ATOM     21  C   UNL     1       4.268  -3.165 -17.972  0.00  0.00    -0.043 A 
ATOM     22  C   UNL     1       3.190  -2.428 -18.466  0.00  0.00    -0.055 A 
ATOM     23 CL   UNL     1       6.847  -3.961 -17.975  0.00  0.00    -0.084 Cl
ENDBRANCH  16  17
ENDBRANCH   7  16
TORSDOF 5
ENDMDL
MODEL 2
REMARK VINA RESULT:    -8.912      4.649      7.562
REMARK INTER + INTRA:         -12.251
REMARK INTER:                 -11.438
REMARK INTRA:                  -0.814
REMARK UNBOUND:                -0.735
REMARK  Name = 5c.sdf
REMARK  6 active torsions:
REMARK  status: ('A' for Active; 'I' for Inactive)
REMARK    1  A    between atoms: N_7  and  C_12
REMARK    2  A    between atoms: C_9  and  C_10
REMARK    3  A    between atoms: C_11  and  C_20
REMARK    4  A    between atoms: C_12  and  C_13
REMARK    5  A    between atoms: C_20  and  O_21
REMARK    6  A    between atoms: O_21  and  C_23
REMARK                            x       y       z     vdW  Elec       q    Type
REMARK                         _______ _______ _______ _____ _____    ______ ____
ROOT
ATOM      1  C   UNL     1       0.362   0.558 -20.834  0.00  0.00    -0.061 A 
ATOM      2  C   UNL     1      -0.939   0.859 -20.451  0.00  0.00    -0.060 A 
ATOM      3  C   UNL     1      -1.923  -0.133 -20.409  0.00  0.00    -0.038 A 
ATOM      4  C   UNL     1      -1.565  -1.447 -20.759  0.00  0.00    +0.050 A 
ATOM      5  C   UNL     1      -0.250  -1.781 -21.111  0.00  0.00    +0.007 A 
ATOM      6  C   UNL     1       0.718  -0.754 -21.157  0.00  0.00    -0.052 A 
ATOM      7  N   UNL     1      -2.312  -2.608 -20.849  0.00  0.00    -0.342 N 
ATOM      8  C   UNL     1      -1.496  -3.664 -21.190  0.00  0.00    +0.013 A 
ATOM      9  C   UNL     1      -0.212  -3.191 -21.349  0.00  0.00    +0.000 A 
ENDROOT
BRANCH   9  10
ATOM     10  C   UNL     1       0.948  -3.963 -21.689  0.00  0.00    -0.046 C 
ATOM     11  C   UNL     1       1.617  -3.898 -22.852  0.00  0.00    +0.023 C 
BRANCH  11  12
ATOM     12  C   UNL     1       2.803  -4.707 -23.204  0.00  0.00    +0.332 C 
ATOM     13  O   UNL     1       3.927  -4.223 -23.206  0.00  0.00    -0.246 OA
BRANCH  12  14
ATOM     14  O   UNL     1       2.494  -5.991 -23.505  0.00  0.00    -0.465 OA
ATOM     15  C   UNL     1       2.472  -6.260 -24.910  0.00  0.00    +0.082 C 
ENDBRANCH  12  14
ENDBRANCH  11  12
ENDBRANCH   9  10
BRANCH   7  16
ATOM     16  C   UNL     1      -3.763  -2.714 -20.686  0.00  0.00    +0.048 C 
BRANCH  16  17
ATOM     17  C   UNL     1      -4.147  -2.782 -19.229  0.00  0.00    -0.028 A 
ATOM     18  C   UNL     1      -3.878  -3.935 -18.474  0.00  0.00    -0.055 A 
ATOM     19  C   UNL     1      -4.372  -4.062 -17.174  0.00  0.00    -0.043 A 
ATOM     20  C   UNL     1      -5.120  -3.030 -16.614  0.00  0.00    +0.041 A 
ATOM     21  C   UNL     1      -5.337  -1.852 -17.324  0.00  0.00    -0.043 A 
ATOM     22  C   UNL     1      -4.850  -1.726 -18.626  0.00  0.00    -0.055 A 
ATOM     23 CL   UNL     1      -5.805  -3.224 -15.048  0.00  0.00    -0.084 Cl
ENDBRANCH  16  17
ENDBRANCH   7  16
TORSDOF 5
ENDMDL
MODEL 3
REMARK VINA RESULT:    -8.694      2.902      5.179
REMARK INTER + INTRA:         -11.970
REMARK INTER:                 -11.243
REMARK INTRA:                  -0.726
REMARK UNBOUND:                -0.735
REMARK  Name = 5c.sdf
REMARK  6 active torsions:
REMARK  status: ('A' for Active; 'I' for Inactive)
REMARK    1  A    between atoms: N_7  and  C_12
REMARK    2  A    between atoms: C_9  and  C_10
REMARK    3  A    between atoms: C_11  and  C_20
REMARK    4  A    between atoms: C_12  and  C_13
REMARK    5  A    between atoms: C_20  and  O_21
REMARK    6  A    between atoms: O_21  and  C_23
REMARK                            x       y       z     vdW  Elec       q    Type
REMARK                         _______ _______ _______ _____ _____    ______ ____
ROOT
ATOM      1  C   UNL     1       4.192  -2.695 -17.840  0.00  0.00    -0.061 A 
ATOM      2  C   UNL     1       5.342  -2.768 -18.617  0.00  0.00    -0.060 A 
ATOM      3  C   UNL     1       5.264  -2.859 -20.010  0.00  0.00    -0.038 A 
ATOM      4  C   UNL     1       3.992  -2.870 -20.610  0.00  0.00    +0.050 A 
ATOM      5  C   UNL     1       2.820  -2.758 -19.850  0.00  0.00    +0.007 A 
ATOM      6  C   UNL     1       2.932  -2.681 -18.444  0.00  0.00    -0.052 A 
ATOM      7  N   UNL     1       3.603  -2.988 -21.932  0.00  0.00    -0.342 N 
ATOM      8  C   UNL     1       2.232  -2.896 -22.027  0.00  0.00    +0.013 A 
ATOM      9  C   UNL     1       1.716  -2.743 -20.759  0.00  0.00    +0.000 A 
ENDROOT
BRANCH   9  10
ATOM     10  C   UNL     1       0.332  -2.595 -20.410  0.00  0.00    -0.046 C 
ATOM     11  C   UNL     1      -0.560  -1.830 -21.060  0.00  0.00    +0.023 C 
BRANCH  11  12
ATOM     12  C   UNL     1      -1.982  -1.668 -20.689  0.00  0.00    +0.332 C 
ATOM     13  O   UNL     1      -2.571  -0.611 -20.865  0.00  0.00    -0.246 OA
BRANCH  12  14
ATOM     14  O   UNL     1      -2.518  -2.793 -20.157  0.00  0.00    -0.465 OA
ATOM     15  C   UNL     1      -3.672  -2.549 -19.347  0.00  0.00    +0.082 C 
ENDBRANCH  12  14
ENDBRANCH  11  12
ENDBRANCH   9  10
BRANCH   7  16
ATOM     16  C   UNL     1       4.486  -3.246 -23.071  0.00  0.00    +0.048 C 
BRANCH  16  17
ATOM     17  C   UNL     1       3.979  -4.395 -23.908  0.00  0.00    -0.028 A 
ATOM     18  C   UNL     1       3.496  -4.171 -25.206  0.00  0.00    -0.055 A 
ATOM     19  C   UNL     1       2.883  -5.202 -25.921  0.00  0.00    -0.043 A 
ATOM     20  C   UNL     1       2.766  -6.466 -25.351  0.00  0.00    +0.041 A 
ATOM     21  C   UNL     1       3.302  -6.722 -24.091  0.00  0.00    -0.043 A 
ATOM     22  C   UNL     1       3.910  -5.691 -23.372  0.00  0.00    -0.055 A 
ATOM     23 CL   UNL     1       1.930  -7.711 -26.194  0.00  0.00    -0.084 Cl
ENDBRANCH  16  17
ENDBRANCH   7  16
TORSDOF 5
ENDMDL
