MODEL 1
REMARK VINA RESULT:    -6.855      0.000      0.000
REMARK INTER + INTRA:          -8.976
REMARK INTER:                  -8.658
REMARK INTRA:                  -0.318
REMARK UNBOUND:                -0.318
REMARK  Name = 6.sdf
REMARK  6 active torsions:
REMARK  status: ('A' for Active; 'I' for Inactive)
REMARK    1  A    between atoms: C_9  and  C_10
REMARK    2  A    between atoms: C_10  and  C_11
REMARK    3  A    between atoms: C_11  and  C_12
REMARK    4  A    between atoms: C_11  and  N_15
REMARK    5  A    between atoms: C_12  and  O_13
REMARK    6  A    between atoms: O_13  and  C_16
REMARK                            x       y       z     vdW  Elec       q    Type
REMARK                         _______ _______ _______ _____ _____    ______ ____
ROOT
ATOM      1  C   UNL     1       3.840  -2.419 -17.689  0.00  0.00    -0.061 A 
ATOM      2  C   UNL     1       5.026  -2.395 -18.418  0.00  0.00    -0.060 A 
ATOM      3  C   UNL     1       5.018  -2.584 -19.802  0.00  0.00    -0.038 A 
ATOM      4  C   UNL     1       3.781  -2.775 -20.427  0.00  0.00    +0.047 A 
ATOM      5  C   UNL     1       2.570  -2.781 -19.730  0.00  0.00    +0.003 A 
ATOM      6  C   UNL     1       2.610  -2.613 -18.329  0.00  0.00    -0.052 A 
ATOM      7  N   UNL     1       3.487  -2.975 -21.754  0.00  0.00    -0.360 N 
ATOM      8  C   UNL     1       2.134  -3.065 -21.931  0.00  0.00    +0.006 A 
ATOM      9  C   UNL     1       1.522  -2.941 -20.697  0.00  0.00    -0.020 A 
ATOM     10  H   UNL     1       4.154  -3.043 -22.474  0.00  0.00    +0.000 HD
ENDROOT
BRANCH   9  11
ATOM     11  C   UNL     1       0.040  -2.922 -20.444  0.00  0.00    -0.000 C 
BRANCH  11  12
ATOM     12  C   UNL     1      -0.634  -1.569 -20.709  0.00  0.00    +0.107 C 
BRANCH  12  13
ATOM     13  N   UNL     1      -0.203  -0.578 -19.681  0.00  0.00    -0.318 N 
ATOM     14  H   UNL     1      -0.911  -0.519 -18.949  0.00  0.00    +0.000 HD
ATOM     15  H   UNL     1      -0.087   0.336 -20.117  0.00  0.00    +0.000 HD
ATOM     16  H   UNL     1       0.683  -0.875 -19.273  0.00  0.00    +0.000 HD
ENDBRANCH  12  13
BRANCH  12  17
ATOM     17  C   UNL     1      -2.159  -1.738 -20.661  0.00  0.00    +0.324 C 
ATOM     18  O   UNL     1      -2.953  -0.935 -21.135  0.00  0.00    -0.249 OA
BRANCH  17  19
ATOM     19  O   UNL     1      -2.485  -2.898 -20.027  0.00  0.00    -0.467 OA
ATOM     20  C   UNL     1      -3.679  -2.881 -19.242  0.00  0.00    +0.082 C 
ENDBRANCH  17  19
ENDBRANCH  12  17
ENDBRANCH  11  12
ENDBRANCH   9  11
TORSDOF 5
ENDMDL
MODEL 2
REMARK VINA RESULT:    -6.796      3.079      4.477
REMARK INTER + INTRA:          -8.901
REMARK INTER:                  -8.577
REMARK INTRA:                  -0.325
REMARK UNBOUND:                -0.318
REMARK  Name = 6.sdf
REMARK  6 active torsions:
REMARK  status: ('A' for Active; 'I' for Inactive)
REMARK    1  A    between atoms: C_9  and  C_10
REMARK    2  A    between atoms: C_10  and  C_11
REMARK    3  A    between atoms: C_11  and  C_12
REMARK    4  A    between atoms: C_11  and  N_15
REMARK    5  A    between atoms: C_12  and  O_13
REMARK    6  A    between atoms: O_13  and  C_16
REMARK                            x       y       z     vdW  Elec       q    Type
REMARK                         _______ _______ _______ _____ _____    ______ ____
ROOT
ATOM      1  C   UNL     1      -0.759   0.664 -20.585  0.00  0.00    -0.061 A 
ATOM      2  C   UNL     1       0.575   0.314 -20.777  0.00  0.00    -0.060 A 
ATOM      3  C   UNL     1       0.963  -1.028 -20.814  0.00  0.00    -0.038 A 
ATOM      4  C   UNL     1      -0.033  -1.999 -20.672  0.00  0.00    +0.047 A 
ATOM      5  C   UNL     1      -1.384  -1.684 -20.502  0.00  0.00    +0.003 A 
ATOM      6  C   UNL     1      -1.745  -0.321 -20.444  0.00  0.00    -0.052 A 
ATOM      7  N   UNL     1       0.065  -3.370 -20.677  0.00  0.00    -0.360 N 
ATOM      8  C   UNL     1      -1.173  -3.935 -20.558  0.00  0.00    +0.006 A 
ATOM      9  C   UNL     1      -2.109  -2.922 -20.455  0.00  0.00    -0.020 A 
ATOM     10  H   UNL     1       0.908  -3.872 -20.754  0.00  0.00    +0.000 HD
ENDROOT
BRANCH   9  11
ATOM     11  C   UNL     1      -3.599  -3.100 -20.369  0.00  0.00    -0.000 C 
BRANCH  11  12
ATOM     12  C   UNL     1      -4.088  -3.748 -19.067  0.00  0.00    +0.107 C 
BRANCH  12  13
ATOM     13  N   UNL     1      -5.210  -4.687 -19.357  0.00  0.00    -0.318 N 
ATOM     14  H   UNL     1      -5.589  -4.487 -20.283  0.00  0.00    +0.000 HD
ATOM     15  H   UNL     1      -5.942  -4.568 -18.657  0.00  0.00    +0.000 HD
ATOM     16  H   UNL     1      -4.866  -5.646 -19.331  0.00  0.00    +0.000 HD
ENDBRANCH  12  13
BRANCH  12  17
ATOM     17  C   UNL     1      -4.563  -2.655 -18.099  0.00  0.00    +0.324 C 
ATOM     18  O   UNL     1      -5.112  -1.618 -18.452  0.00  0.00    -0.249 OA
BRANCH  17  19
ATOM     19  O   UNL     1      -4.290  -3.012 -16.814  0.00  0.00    -0.467 OA
ATOM     20  C   UNL     1      -5.410  -3.138 -15.936  0.00  0.00    +0.082 C 
ENDBRANCH  17  19
ENDBRANCH  12  17
ENDBRANCH  11  12
ENDBRANCH   9  11
TORSDOF 5
ENDMDL
MODEL 3
REMARK VINA RESULT:    -6.587      4.868      7.326
REMARK INTER + INTRA:          -8.638
REMARK INTER:                  -8.220
REMARK INTRA:                  -0.418
REMARK UNBOUND:                -0.318
REMARK  Name = 6.sdf
REMARK  6 active torsions:
REMARK  status: ('A' for Active; 'I' for Inactive)
REMARK    1  A    between atoms: C_9  and  C_10
REMARK    2  A    between atoms: C_10  and  C_11
REMARK    3  A    between atoms: C_11  and  C_12
REMARK    4  A    between atoms: C_11  and  N_15
REMARK    5  A    between atoms: C_12  and  O_13
REMARK    6  A    between atoms: O_13  and  C_16
REMARK                            x       y       z     vdW  Elec       q    Type
REMARK                         _______ _______ _______ _____ _____    ______ ____
ROOT
ATOM      1  C   UNL     1       3.225  -2.694 -17.736  0.00  0.00    -0.061 A 
ATOM      2  C   UNL     1       2.230  -2.773 -18.707  0.00  0.00    -0.060 A 
ATOM      3  C   UNL     1       2.556  -2.793 -20.065  0.00  0.00    -0.038 A 
ATOM      4  C   UNL     1       3.911  -2.753 -20.410  0.00  0.00    +0.047 A 
ATOM      5  C   UNL     1       4.936  -2.699 -19.463  0.00  0.00    +0.003 A 
ATOM      6  C   UNL     1       4.577  -2.655 -18.098  0.00  0.00    -0.052 A 
ATOM      7  N   UNL     1       4.505  -2.768 -21.650  0.00  0.00    -0.360 N 
ATOM      8  C   UNL     1       5.866  -2.767 -21.523  0.00  0.00    +0.006 A 
ATOM      9  C   UNL     1       6.181  -2.734 -20.177  0.00  0.00    -0.020 A 
ATOM     10  H   UNL     1       4.019  -2.777 -22.506  0.00  0.00    +0.000 HD
ENDROOT
BRANCH   9  11
ATOM     11  C   UNL     1       7.565  -2.783 -19.592  0.00  0.00    -0.000 C 
BRANCH  11  12
ATOM     12  C   UNL     1       7.954  -4.140 -18.991  0.00  0.00    +0.107 C 
BRANCH  12  13
ATOM     13  N   UNL     1       8.942  -3.943 -17.891  0.00  0.00    -0.318 N 
ATOM     14  H   UNL     1       8.599  -4.392 -17.042  0.00  0.00    +0.000 HD
ATOM     15  H   UNL     1       9.067  -2.945 -17.721  0.00  0.00    +0.000 HD
ATOM     16  H   UNL     1       9.834  -4.357 -18.158  0.00  0.00    +0.000 HD
ENDBRANCH  12  13
BRANCH  12  17
ATOM     17  C   UNL     1       8.564  -5.028 -20.084  0.00  0.00    +0.324 C 
ATOM     18  O   UNL     1       9.699  -4.889 -20.526  0.00  0.00    -0.249 OA
BRANCH  17  19
ATOM     19  O   UNL     1       7.671  -5.978 -20.474  0.00  0.00    -0.467 OA
ATOM     20  C   UNL     1       7.523  -6.174 -21.881  0.00  0.00    +0.082 C 
ENDBRANCH  17  19
ENDBRANCH  12  17
ENDBRANCH  11  12
ENDBRANCH   9  11
TORSDOF 5
ENDMDL
