MODEL 1
REMARK VINA RESULT:    -6.561      0.000      0.000
REMARK INTER + INTRA:          -7.958
REMARK INTER:                  -7.712
REMARK INTRA:                  -0.246
REMARK UNBOUND:                -0.246
REMARK  Name = 7.sdf
REMARK  4 active torsions:
REMARK  status: ('A' for Active; 'I' for Inactive)
REMARK    1  A    between atoms: C_9  and  C_10
REMARK    2  A    between atoms: C_10  and  C_11
REMARK    3  A    between atoms: C_11  and  O_13
REMARK    4  A    between atoms: O_13  and  C_14
REMARK                            x       y       z     vdW  Elec       q    Type
REMARK                         _______ _______ _______ _____ _____    ______ ____
ROOT
ATOM      1  C   UNL     1       6.135  -2.832 -20.425  0.00  0.00    -0.061 A 
ATOM      2  C   UNL     1       6.837  -2.336 -19.329  0.00  0.00    -0.060 A 
ATOM      3  C   UNL     1       6.163  -1.818 -18.220  0.00  0.00    -0.038 A 
ATOM      4  C   UNL     1       4.763  -1.826 -18.247  0.00  0.00    +0.047 A 
ATOM      5  C   UNL     1       4.027  -2.330 -19.322  0.00  0.00    +0.003 A 
ATOM      6  C   UNL     1       4.734  -2.834 -20.435  0.00  0.00    -0.052 A 
ATOM      7  N   UNL     1       3.859  -1.380 -17.312  0.00  0.00    -0.360 N 
ATOM      8  C   UNL     1       2.581  -1.620 -17.735  0.00  0.00    +0.006 A 
ATOM      9  C   UNL     1       2.638  -2.215 -18.983  0.00  0.00    -0.012 A 
ATOM     10  H   UNL     1       4.098  -0.949 -16.460  0.00  0.00    +0.000 HD
ENDROOT
BRANCH   9  11
ATOM     11  C   UNL     1       1.467  -2.693 -19.784  0.00  0.00    +0.072 C 
BRANCH  11  12
ATOM     12  C   UNL     1       0.480  -1.606 -20.157  0.00  0.00    +0.311 C 
ATOM     13  O   UNL     1      -0.704  -1.552 -19.859  0.00  0.00    -0.250 OA
BRANCH  12  14
ATOM     14  O   UNL     1       1.131  -0.672 -20.920  0.00  0.00    -0.468 OA
ATOM     15  C   UNL     1       0.516   0.618 -20.950  0.00  0.00    +0.082 C 
ENDBRANCH  12  14
ENDBRANCH  11  12
ENDBRANCH   9  11
TORSDOF 3
ENDMDL
MODEL 2
REMARK VINA RESULT:    -6.304      1.795      2.948
REMARK INTER + INTRA:          -7.656
REMARK INTER:                  -7.402
REMARK INTRA:                  -0.254
REMARK UNBOUND:                -0.246
REMARK  Name = 7.sdf
REMARK  4 active torsions:
REMARK  status: ('A' for Active; 'I' for Inactive)
REMARK    1  A    between atoms: C_9  and  C_10
REMARK    2  A    between atoms: C_10  and  C_11
REMARK    3  A    between atoms: C_11  and  O_13
REMARK    4  A    between atoms: O_13  and  C_14
REMARK                            x       y       z     vdW  Elec       q    Type
REMARK                         _______ _______ _______ _____ _____    ______ ____
ROOT
ATOM      1  C   UNL     1       3.357  -2.045 -17.519  0.00  0.00    -0.061 A 
ATOM      2  C   UNL     1       4.680  -2.237 -17.911  0.00  0.00    -0.060 A 
ATOM      3  C   UNL     1       4.994  -2.594 -19.225  0.00  0.00    -0.038 A 
ATOM      4  C   UNL     1       3.937  -2.739 -20.130  0.00  0.00    +0.047 A 
ATOM      5  C   UNL     1       2.601  -2.538 -19.776  0.00  0.00    +0.003 A 
ATOM      6  C   UNL     1       2.311  -2.191 -18.439  0.00  0.00    -0.052 A 
ATOM      7  N   UNL     1       3.955  -3.085 -21.461  0.00  0.00    -0.360 N 
ATOM      8  C   UNL     1       2.687  -3.069 -21.972  0.00  0.00    +0.006 A 
ATOM      9  C   UNL     1       1.810  -2.729 -20.958  0.00  0.00    -0.012 A 
ATOM     10  H   UNL     1       4.766  -3.311 -21.972  0.00  0.00    +0.000 HD
ENDROOT
BRANCH   9  11
ATOM     11  C   UNL     1       0.331  -2.546 -21.098  0.00  0.00    +0.072 C 
BRANCH  11  12
ATOM     12  C   UNL     1      -0.121  -1.100 -21.103  0.00  0.00    +0.311 C 
ATOM     13  O   UNL     1       0.580  -0.109 -21.249  0.00  0.00    -0.250 OA
BRANCH  12  14
ATOM     14  O   UNL     1      -1.475  -1.067 -20.893  0.00  0.00    -0.468 OA
ATOM     15  C   UNL     1      -2.060  -2.321 -20.534  0.00  0.00    +0.082 C 
ENDBRANCH  12  14
ENDBRANCH  11  12
ENDBRANCH   9  11
TORSDOF 3
ENDMDL
MODEL 3
REMARK VINA RESULT:    -6.266      2.585      4.926
REMARK INTER + INTRA:          -7.611
REMARK INTER:                  -7.408
REMARK INTRA:                  -0.202
REMARK UNBOUND:                -0.246
REMARK  Name = 7.sdf
REMARK  4 active torsions:
REMARK  status: ('A' for Active; 'I' for Inactive)
REMARK    1  A    between atoms: C_9  and  C_10
REMARK    2  A    between atoms: C_10  and  C_11
REMARK    3  A    between atoms: C_11  and  O_13
REMARK    4  A    between atoms: O_13  and  C_14
REMARK                            x       y       z     vdW  Elec       q    Type
REMARK                         _______ _______ _______ _____ _____    ______ ____
ROOT
ATOM      1  C   UNL     1       1.636  -2.556 -21.600  0.00  0.00    -0.061 A 
ATOM      2  C   UNL     1       0.602  -1.822 -21.022  0.00  0.00    -0.060 A 
ATOM      3  C   UNL     1       0.702  -1.356 -19.708  0.00  0.00    -0.038 A 
ATOM      4  C   UNL     1       1.878  -1.641 -19.004  0.00  0.00    +0.047 A 
ATOM      5  C   UNL     1       2.940  -2.358 -19.558  0.00  0.00    +0.003 A 
ATOM      6  C   UNL     1       2.807  -2.829 -20.881  0.00  0.00    -0.052 A 
ATOM      7  N   UNL     1       2.236  -1.317 -17.717  0.00  0.00    -0.360 N 
ATOM      8  C   UNL     1       3.500  -1.764 -17.449  0.00  0.00    +0.006 A 
ATOM      9  C   UNL     1       3.979  -2.417 -18.571  0.00  0.00    -0.012 A 
ATOM     10  H   UNL     1       1.664  -0.831 -17.079  0.00  0.00    +0.000 HD
ENDROOT
BRANCH   9  11
ATOM     11  C   UNL     1       5.344  -3.013 -18.726  0.00  0.00    +0.072 C 
BRANCH  11  12
ATOM     12  C   UNL     1       6.330  -2.132 -19.465  0.00  0.00    +0.311 C 
ATOM     13  O   UNL     1       6.141  -1.533 -20.514  0.00  0.00    -0.250 OA
BRANCH  12  14
ATOM     14  O   UNL     1       7.510  -2.122 -18.768  0.00  0.00    -0.468 OA
ATOM     15  C   UNL     1       8.663  -2.489 -19.529  0.00  0.00    +0.082 C 
ENDBRANCH  12  14
ENDBRANCH  11  12
ENDBRANCH   9  11
TORSDOF 3
ENDMDL
