MODEL 1
REMARK VINA RESULT:    -7.976      0.000      0.000
REMARK INTER + INTRA:         -11.005
REMARK INTER:                 -10.307
REMARK INTRA:                  -0.698
REMARK UNBOUND:                -0.698
REMARK  Name = 7b.sdf
REMARK  6 active torsions:
REMARK  status: ('A' for Active; 'I' for Inactive)
REMARK    1  A    between atoms: N_7  and  C_12
REMARK    2  A    between atoms: C_9  and  C_10
REMARK    3  A    between atoms: C_10  and  C_11
REMARK    4  A    between atoms: C_11  and  O_20
REMARK    5  A    between atoms: C_12  and  C_13
REMARK    6  A    between atoms: O_20  and  C_21
REMARK                            x       y       z     vdW  Elec       q    Type
REMARK                         _______ _______ _______ _____ _____    ______ ____
ROOT
ATOM      1  C   UNL     1       1.126  -4.943 -23.464  0.00  0.00    -0.061 A 
ATOM      2  C   UNL     1       2.391  -4.423 -23.207  0.00  0.00    -0.060 A 
ATOM      3  C   UNL     1       2.578  -3.436 -22.235  0.00  0.00    -0.038 A 
ATOM      4  C   UNL     1       1.455  -2.980 -21.525  0.00  0.00    +0.050 A 
ATOM      5  C   UNL     1       0.180  -3.518 -21.737  0.00  0.00    +0.004 A 
ATOM      6  C   UNL     1       0.019  -4.508 -22.729  0.00  0.00    -0.052 A 
ATOM      7  N   UNL     1       1.321  -2.006 -20.558  0.00  0.00    -0.342 N 
ATOM      8  C   UNL     1       0.023  -1.956 -20.114  0.00  0.00    +0.010 A 
ATOM      9  C   UNL     1      -0.715  -2.891 -20.811  0.00  0.00    -0.012 A 
ENDROOT
BRANCH   9  10
ATOM     10  C   UNL     1      -2.172  -3.179 -20.634  0.00  0.00    +0.072 C 
BRANCH  10  11
ATOM     11  C   UNL     1      -3.010  -1.929 -20.451  0.00  0.00    +0.311 C 
ATOM     12  O   UNL     1      -3.050  -0.955 -21.192  0.00  0.00    -0.250 OA
BRANCH  11  13
ATOM     13  O   UNL     1      -3.747  -2.054 -19.304  0.00  0.00    -0.468 OA
ATOM     14  C   UNL     1      -4.287  -3.361 -19.103  0.00  0.00    +0.082 C 
ENDBRANCH  11  13
ENDBRANCH  10  11
ENDBRANCH   9  10
BRANCH   7  15
ATOM     15  C   UNL     1       2.366  -1.085 -20.115  0.00  0.00    +0.048 C 
BRANCH  15  16
ATOM     16  C   UNL     1       3.559  -1.741 -19.465  0.00  0.00    -0.025 A 
ATOM     17  C   UNL     1       3.471  -2.632 -18.390  0.00  0.00    -0.039 A 
ATOM     18  C   UNL     1       4.639  -3.152 -17.853  0.00  0.00    +0.028 A 
ATOM     19  N   UNL     1       5.874  -2.868 -18.316  0.00  0.00    -0.263 NA
ATOM     20  C   UNL     1       5.945  -2.025 -19.365  0.00  0.00    +0.028 A 
ATOM     21  C   UNL     1       4.835  -1.449 -19.966  0.00  0.00    -0.039 A 
ENDBRANCH  15  16
ENDBRANCH   7  15
TORSDOF 5
ENDMDL
MODEL 2
REMARK VINA RESULT:    -7.976      3.485      6.668
REMARK INTER + INTRA:         -11.005
REMARK INTER:                 -10.330
REMARK INTRA:                  -0.675
REMARK UNBOUND:                -0.698
REMARK  Name = 7b.sdf
REMARK  6 active torsions:
REMARK  status: ('A' for Active; 'I' for Inactive)
REMARK    1  A    between atoms: N_7  and  C_12
REMARK    2  A    between atoms: C_9  and  C_10
REMARK    3  A    between atoms: C_10  and  C_11
REMARK    4  A    between atoms: C_11  and  O_20
REMARK    5  A    between atoms: C_12  and  C_13
REMARK    6  A    between atoms: O_20  and  C_21
REMARK                            x       y       z     vdW  Elec       q    Type
REMARK                         _______ _______ _______ _____ _____    ______ ____
ROOT
ATOM      1  C   UNL     1       4.913  -1.983 -17.987  0.00  0.00    -0.061 A 
ATOM      2  C   UNL     1       3.641  -2.228 -17.479  0.00  0.00    -0.060 A 
ATOM      3  C   UNL     1       2.595  -2.620 -18.320  0.00  0.00    -0.038 A 
ATOM      4  C   UNL     1       2.861  -2.759 -19.692  0.00  0.00    +0.050 A 
ATOM      5  C   UNL     1       4.143  -2.559 -20.219  0.00  0.00    +0.004 A 
ATOM      6  C   UNL     1       5.178  -2.157 -19.348  0.00  0.00    -0.052 A 
ATOM      7  N   UNL     1       2.040  -3.082 -20.753  0.00  0.00    -0.342 N 
ATOM      8  C   UNL     1       2.771  -3.153 -21.912  0.00  0.00    +0.010 A 
ATOM      9  C   UNL     1       4.086  -2.849 -21.620  0.00  0.00    -0.012 A 
ENDROOT
BRANCH   9  10
ATOM     10  C   UNL     1       5.224  -2.820 -22.592  0.00  0.00    +0.072 C 
BRANCH  10  11
ATOM     11  C   UNL     1       5.058  -3.802 -23.734  0.00  0.00    +0.311 C 
ATOM     12  O   UNL     1       5.049  -5.024 -23.660  0.00  0.00    -0.250 OA
BRANCH  11  13
ATOM     13  O   UNL     1       4.905  -3.101 -24.901  0.00  0.00    -0.468 OA
ATOM     14  C   UNL     1       3.896  -3.627 -25.764  0.00  0.00    +0.082 C 
ENDBRANCH  11  13
ENDBRANCH  10  11
ENDBRANCH   9  10
BRANCH   7  15
ATOM     15  C   UNL     1       0.588  -3.244 -20.697  0.00  0.00    +0.048 C 
BRANCH  15  16
ATOM     16  C   UNL     1      -0.195  -1.955 -20.649  0.00  0.00    -0.025 A 
ATOM     17  C   UNL     1       0.391  -0.687 -20.577  0.00  0.00    -0.039 A 
ATOM     18  C   UNL     1      -0.430   0.428 -20.508  0.00  0.00    +0.028 A 
ATOM     19  N   UNL     1      -1.777   0.375 -20.526  0.00  0.00    -0.263 NA
ATOM     20  C   UNL     1      -2.331  -0.851 -20.618  0.00  0.00    +0.028 A 
ATOM     21  C   UNL     1      -1.594  -2.024 -20.685  0.00  0.00    -0.039 A 
ENDBRANCH  15  16
ENDBRANCH   7  15
TORSDOF 5
ENDMDL
MODEL 3
REMARK VINA RESULT:    -7.841      2.688      4.460
REMARK INTER + INTRA:         -10.831
REMARK INTER:                 -10.043
REMARK INTRA:                  -0.788
REMARK UNBOUND:                -0.698
REMARK  Name = 7b.sdf
REMARK  6 active torsions:
REMARK  status: ('A' for Active; 'I' for Inactive)
REMARK    1  A    between atoms: N_7  and  C_12
REMARK    2  A    between atoms: C_9  and  C_10
REMARK    3  A    between atoms: C_10  and  C_11
REMARK    4  A    between atoms: C_11  and  O_20
REMARK    5  A    between atoms: C_12  and  C_13
REMARK    6  A    between atoms: O_20  and  C_21
REMARK                            x       y       z     vdW  Elec       q    Type
REMARK                         _______ _______ _______ _____ _____    ______ ____
ROOT
ATOM      1  C   UNL     1       3.712  -2.354 -17.612  0.00  0.00    -0.061 A 
ATOM      2  C   UNL     1       4.969  -2.268 -18.202  0.00  0.00    -0.060 A 
ATOM      3  C   UNL     1       5.131  -2.442 -19.579  0.00  0.00    -0.038 A 
ATOM      4  C   UNL     1       3.990  -2.710 -20.353  0.00  0.00    +0.050 A 
ATOM      5  C   UNL     1       2.710  -2.760 -19.789  0.00  0.00    +0.004 A 
ATOM      6  C   UNL     1       2.577  -2.587 -18.395  0.00  0.00    -0.052 A 
ATOM      7  N   UNL     1       3.842  -2.967 -21.701  0.00  0.00    -0.342 N 
ATOM      8  C   UNL     1       2.513  -3.114 -22.011  0.00  0.00    +0.010 A 
ATOM      9  C   UNL     1       1.775  -2.977 -20.852  0.00  0.00    -0.012 A 
ENDROOT
BRANCH   9  10
ATOM     10  C   UNL     1       0.285  -3.054 -20.738  0.00  0.00    +0.072 C 
BRANCH  10  11
ATOM     11  C   UNL     1      -0.395  -1.707 -20.884  0.00  0.00    +0.311 C 
ATOM     12  O   UNL     1      -0.039  -0.776 -21.595  0.00  0.00    -0.250 OA
BRANCH  11  13
ATOM     13  O   UNL     1      -1.507  -1.684 -20.085  0.00  0.00    -0.468 OA
ATOM     14  C   UNL     1      -2.687  -1.230 -20.749  0.00  0.00    +0.082 C 
ENDBRANCH  11  13
ENDBRANCH  10  11
ENDBRANCH   9  10
BRANCH   7  15
ATOM     15  C   UNL     1       4.925  -3.150 -22.665  0.00  0.00    +0.048 C 
BRANCH  15  16
ATOM     16  C   UNL     1       5.459  -4.559 -22.763  0.00  0.00    -0.025 A 
ATOM     17  C   UNL     1       4.859  -5.571 -23.520  0.00  0.00    -0.039 A 
ATOM     18  C   UNL     1       5.423  -6.837 -23.513  0.00  0.00    +0.028 A 
ATOM     19  N   UNL     1       6.540  -7.162 -22.829  0.00  0.00    -0.263 NA
ATOM     20  C   UNL     1       7.121  -6.173 -22.120  0.00  0.00    +0.028 A 
ATOM     21  C   UNL     1       6.629  -4.878 -22.060  0.00  0.00    -0.039 A 
ENDBRANCH  15  16
ENDBRANCH   7  15
TORSDOF 5
ENDMDL
