MODEL 1
REMARK VINA RESULT:    -8.707      0.000      0.000
REMARK INTER + INTRA:         -11.131
REMARK INTER:                 -10.744
REMARK INTRA:                  -0.387
REMARK UNBOUND:                -0.387
REMARK  Name = 7d.sdf
REMARK  5 active torsions:
REMARK  status: ('A' for Active; 'I' for Inactive)
REMARK    1  A    between atoms: C_9  and  C_10
REMARK    2  A    between atoms: C_10  and  C_11
REMARK    3  A    between atoms: C_11  and  O_20
REMARK    4  A    between atoms: C_12  and  C_13
REMARK    5  A    between atoms: O_20  and  C_22
REMARK                            x       y       z     vdW  Elec       q    Type
REMARK                         _______ _______ _______ _____ _____    ______ ____
ROOT
ATOM      1  C   UNL     1       5.330  -3.703 -23.379  0.00  0.00    -0.061 A 
ATOM      2  C   UNL     1       4.239  -4.325 -23.973  0.00  0.00    -0.060 A 
ATOM      3  C   UNL     1       2.970  -4.254 -23.392  0.00  0.00    -0.037 A 
ATOM      4  C   UNL     1       2.819  -3.543 -22.186  0.00  0.00    +0.057 A 
ATOM      5  C   UNL     1       3.907  -2.899 -21.579  0.00  0.00    +0.004 A 
ATOM      6  C   UNL     1       5.177  -2.988 -22.189  0.00  0.00    -0.052 A 
ATOM      7  N   UNL     1       1.682  -3.258 -21.430  0.00  0.00    -0.283 N 
ATOM      8  C   UNL     1       2.089  -2.557 -20.309  0.00  0.00    +0.018 A 
ATOM      9  C   UNL     1       3.428  -2.249 -20.401  0.00  0.00    -0.011 A 
ATOM     10  C   UNL     1       0.337  -3.588 -21.727  0.00  0.00    +0.263 C 
ATOM     11  O   UNL     1       0.112  -4.538 -22.472  0.00  0.00    -0.267 OA
ENDROOT
BRANCH  10  12
ATOM     12  C   UNL     1      -0.808  -2.824 -21.166  0.00  0.00    +0.040 A 
ATOM     13  C   UNL     1      -1.878  -3.506 -20.570  0.00  0.00    -0.049 A 
ATOM     14  C   UNL     1      -2.984  -2.799 -20.100  0.00  0.00    -0.061 A 
ATOM     15  C   UNL     1      -3.011  -1.410 -20.199  0.00  0.00    -0.062 A 
ATOM     16  C   UNL     1      -1.924  -0.724 -20.747  0.00  0.00    -0.061 A 
ATOM     17  C   UNL     1      -0.812  -1.427 -21.226  0.00  0.00    -0.049 A 
ENDBRANCH  10  12
BRANCH   9  18
ATOM     18  C   UNL     1       4.198  -1.407 -19.430  0.00  0.00    +0.072 C 
BRANCH  18  19
ATOM     19  C   UNL     1       4.969  -2.234 -18.412  0.00  0.00    +0.311 C 
ATOM     20  O   UNL     1       4.561  -3.222 -17.816  0.00  0.00    -0.250 OA
BRANCH  19  21
ATOM     21  O   UNL     1       6.224  -1.712 -18.266  0.00  0.00    -0.468 OA
ATOM     22  C   UNL     1       7.233  -2.441 -18.968  0.00  0.00    +0.082 C 
ENDBRANCH  19  21
ENDBRANCH  18  19
ENDBRANCH   9  18
TORSDOF 4
ENDMDL
MODEL 2
REMARK VINA RESULT:    -8.552      1.815      4.332
REMARK INTER + INTRA:         -10.939
REMARK INTER:                 -10.425
REMARK INTRA:                  -0.514
REMARK UNBOUND:                -0.387
REMARK  Name = 7d.sdf
REMARK  5 active torsions:
REMARK  status: ('A' for Active; 'I' for Inactive)
REMARK    1  A    between atoms: C_9  and  C_10
REMARK    2  A    between atoms: C_10  and  C_11
REMARK    3  A    between atoms: C_11  and  O_20
REMARK    4  A    between atoms: C_12  and  C_13
REMARK    5  A    between atoms: O_20  and  C_22
REMARK                            x       y       z     vdW  Elec       q    Type
REMARK                         _______ _______ _______ _____ _____    ______ ____
ROOT
ATOM      1  C   UNL     1       7.070  -3.591 -19.314  0.00  0.00    -0.061 A 
ATOM      2  C   UNL     1       6.302  -3.131 -18.253  0.00  0.00    -0.060 A 
ATOM      3  C   UNL     1       4.988  -2.696 -18.454  0.00  0.00    -0.037 A 
ATOM      4  C   UNL     1       4.461  -2.726 -19.758  0.00  0.00    +0.057 A 
ATOM      5  C   UNL     1       5.218  -3.198 -20.841  0.00  0.00    +0.004 A 
ATOM      6  C   UNL     1       6.541  -3.632 -20.607  0.00  0.00    -0.052 A 
ATOM      7  N   UNL     1       3.187  -2.418 -20.235  0.00  0.00    -0.283 N 
ATOM      8  C   UNL     1       3.202  -2.579 -21.609  0.00  0.00    +0.018 A 
ATOM      9  C   UNL     1       4.401  -3.129 -22.009  0.00  0.00    -0.011 A 
ATOM     10  C   UNL     1       2.049  -2.028 -19.485  0.00  0.00    +0.263 C 
ATOM     11  O   UNL     1       2.217  -1.510 -18.385  0.00  0.00    -0.267 OA
ENDROOT
BRANCH  10  12
ATOM     12  C   UNL     1       0.664  -2.226 -19.988  0.00  0.00    +0.040 A 
ATOM     13  C   UNL     1      -0.180  -1.120 -20.160  0.00  0.00    -0.049 A 
ATOM     14  C   UNL     1      -1.500  -1.305 -20.568  0.00  0.00    -0.061 A 
ATOM     15  C   UNL     1      -1.970  -2.589 -20.833  0.00  0.00    -0.062 A 
ATOM     16  C   UNL     1      -1.116  -3.688 -20.710  0.00  0.00    -0.061 A 
ATOM     17  C   UNL     1       0.209  -3.512 -20.294  0.00  0.00    -0.049 A 
ENDBRANCH  10  12
BRANCH   9  18
ATOM     18  C   UNL     1       4.745  -3.547 -23.406  0.00  0.00    +0.072 C 
BRANCH  18  19
ATOM     19  C   UNL     1       3.906  -4.717 -23.897  0.00  0.00    +0.311 C 
ATOM     20  O   UNL     1       3.882  -5.846 -23.425  0.00  0.00    -0.250 OA
BRANCH  19  21
ATOM     21  O   UNL     1       3.148  -4.311 -24.960  0.00  0.00    -0.468 OA
ATOM     22  C   UNL     1       3.892  -3.619 -25.964  0.00  0.00    +0.082 C 
ENDBRANCH  19  21
ENDBRANCH  18  19
ENDBRANCH   9  18
TORSDOF 4
ENDMDL
MODEL 3
REMARK VINA RESULT:    -8.528      2.876      5.024
REMARK INTER + INTRA:         -10.910
REMARK INTER:                 -10.246
REMARK INTRA:                  -0.663
REMARK UNBOUND:                -0.387
REMARK  Name = 7d.sdf
REMARK  5 active torsions:
REMARK  status: ('A' for Active; 'I' for Inactive)
REMARK    1  A    between atoms: C_9  and  C_10
REMARK    2  A    between atoms: C_10  and  C_11
REMARK    3  A    between atoms: C_11  and  O_20
REMARK    4  A    between atoms: C_12  and  C_13
REMARK    5  A    between atoms: O_20  and  C_22
REMARK                            x       y       z     vdW  Elec       q    Type
REMARK                         _______ _______ _______ _____ _____    ______ ____
ROOT
ATOM      1  C   UNL     1       3.855  -2.068 -17.611  0.00  0.00    -0.061 A 
ATOM      2  C   UNL     1       2.565  -2.191 -18.112  0.00  0.00    -0.060 A 
ATOM      3  C   UNL     1       2.345  -2.572 -19.439  0.00  0.00    -0.037 A 
ATOM      4  C   UNL     1       3.458  -2.821 -20.262  0.00  0.00    +0.057 A 
ATOM      5  C   UNL     1       4.768  -2.713 -19.771  0.00  0.00    +0.004 A 
ATOM      6  C   UNL     1       4.959  -2.328 -18.426  0.00  0.00    -0.052 A 
ATOM      7  N   UNL     1       3.537  -3.268 -21.581  0.00  0.00    -0.283 N 
ATOM      8  C   UNL     1       4.875  -3.311 -21.931  0.00  0.00    +0.018 A 
ATOM      9  C   UNL     1       5.662  -3.055 -20.829  0.00  0.00    -0.011 A 
ATOM     10  C   UNL     1       2.471  -3.641 -22.437  0.00  0.00    +0.263 C 
ATOM     11  O   UNL     1       1.352  -3.184 -22.220  0.00  0.00    -0.267 OA
ENDROOT
BRANCH  10  12
ATOM     12  C   UNL     1       2.664  -4.564 -23.586  0.00  0.00    +0.040 A 
ATOM     13  C   UNL     1       2.923  -4.044 -24.863  0.00  0.00    -0.049 A 
ATOM     14  C   UNL     1       3.040  -4.901 -25.956  0.00  0.00    -0.061 A 
ATOM     15  C   UNL     1       2.929  -6.277 -25.773  0.00  0.00    -0.062 A 
ATOM     16  C   UNL     1       2.721  -6.801 -24.494  0.00  0.00    -0.061 A 
ATOM     17  C   UNL     1       2.596  -5.946 -23.391  0.00  0.00    -0.049 A 
ENDBRANCH  10  12
BRANCH   9  18
ATOM     18  C   UNL     1       7.158  -3.120 -20.793  0.00  0.00    +0.072 C 
BRANCH  18  19
ATOM     19  C   UNL     1       7.680  -4.375 -20.110  0.00  0.00    +0.311 C 
ATOM     20  O   UNL     1       7.614  -5.519 -20.538  0.00  0.00    -0.250 OA
BRANCH  19  21
ATOM     21  O   UNL     1       8.265  -4.030 -18.923  0.00  0.00    -0.468 OA
ATOM     22  C   UNL     1       7.777  -4.775 -17.805  0.00  0.00    +0.082 C 
ENDBRANCH  19  21
ENDBRANCH  18  19
ENDBRANCH   9  18
TORSDOF 4
ENDMDL
