MODEL 1
REMARK VINA RESULT:   -10.189      0.000      0.000
REMARK INTER + INTRA:         -13.260
REMARK INTER:                 -12.572
REMARK INTRA:                  -0.688
REMARK UNBOUND:                -0.688
REMARK  Name = 8d.sdf
REMARK  4 active torsions:
REMARK  status: ('A' for Active; 'I' for Inactive)
REMARK    1  A    between atoms: C_9  and  C_10
REMARK    2  A    between atoms: N_11  and  N_19
REMARK    3  A    between atoms: C_12  and  C_13
REMARK    4  A    between atoms: C_20  and  C_22
REMARK                            x       y       z     vdW  Elec       q    Type
REMARK                         _______ _______ _______ _____ _____    ______ ____
ROOT
ATOM      1  C   UNL     1       3.951  -2.377 -20.311  0.00  0.00    -0.061 A 
ATOM      2  C   UNL     1       3.234  -1.556 -19.452  0.00  0.00    -0.060 A 
ATOM      3  C   UNL     1       1.851  -1.412 -19.588  0.00  0.00    -0.037 A 
ATOM      4  C   UNL     1       1.199  -2.108 -20.624  0.00  0.00    +0.057 A 
ATOM      5  C   UNL     1       1.901  -2.959 -21.489  0.00  0.00    +0.009 A 
ATOM      6  C   UNL     1       3.299  -3.087 -21.328  0.00  0.00    -0.052 A 
ATOM      7  N   UNL     1      -0.148  -2.163 -20.974  0.00  0.00    -0.282 N 
ATOM      8  C   UNL     1      -0.269  -3.007 -22.061  0.00  0.00    +0.023 A 
ATOM      9  C   UNL     1       0.961  -3.534 -22.397  0.00  0.00    +0.020 A 
ATOM     10  C   UNL     1      -1.228  -1.487 -20.353  0.00  0.00    +0.263 C 
ATOM     11  O   UNL     1      -0.995  -0.403 -19.812  0.00  0.00    -0.267 OA
ENDROOT
BRANCH  10  12
ATOM     12  C   UNL     1      -2.616  -2.013 -20.360  0.00  0.00    +0.040 A 
ATOM     13  C   UNL     1      -3.573  -1.476 -21.234  0.00  0.00    -0.049 A 
ATOM     14  C   UNL     1      -4.905  -1.873 -21.137  0.00  0.00    -0.061 A 
ATOM     15  C   UNL     1      -5.273  -2.840 -20.205  0.00  0.00    -0.062 A 
ATOM     16  C   UNL     1      -4.307  -3.441 -19.395  0.00  0.00    -0.061 A 
ATOM     17  C   UNL     1      -2.975  -3.035 -19.477  0.00  0.00    -0.049 A 
ENDBRANCH  10  12
BRANCH   9  18
ATOM     18  C   UNL     1       1.195  -4.470 -23.482  0.00  0.00    +0.055 C 
ATOM     19  N   UNL     1       1.457  -5.704 -23.197  0.00  0.00    -0.187 NA
BRANCH  19  20
ATOM     20  N   UNL     1       1.666  -6.554 -24.250  0.00  0.00    -0.203 N 
ATOM     21  C   UNL     1       2.962  -6.958 -24.553  0.00  0.00    +0.263 C 
ATOM     22  O   UNL     1       3.971  -6.615 -23.941  0.00  0.00    -0.268 OA
ATOM     23  H   UNL     1       0.907  -6.876 -24.788  0.00  0.00    +0.000 HD
BRANCH  21  24
ATOM     24  C   UNL     1       3.100  -7.909 -25.693  0.00  0.00    +0.038 A 
ATOM     25  C   UNL     1       4.281  -8.629 -25.929  0.00  0.00    -0.049 A 
ATOM     26  C   UNL     1       4.374  -9.483 -27.034  0.00  0.00    -0.047 A 
ATOM     27  C   UNL     1       3.286  -9.629 -27.893  0.00  0.00    +0.018 A 
ATOM     28  C   UNL     1       2.093  -8.954 -27.646  0.00  0.00    -0.047 A 
ATOM     29  C   UNL     1       2.000  -8.099 -26.543  0.00  0.00    -0.049 A 
ATOM     30 BR   UNL     1       3.434 -10.750 -29.408  0.00  0.00    -0.050 Br
ENDBRANCH  21  24
ENDBRANCH  19  20
ENDBRANCH   9  18
TORSDOF 4
ENDMDL
MODEL 2
REMARK VINA RESULT:    -9.185      1.541      2.362
REMARK INTER + INTRA:         -12.021
REMARK INTER:                 -11.609
REMARK INTRA:                  -0.412
REMARK UNBOUND:                -0.688
REMARK  Name = 8d.sdf
REMARK  4 active torsions:
REMARK  status: ('A' for Active; 'I' for Inactive)
REMARK    1  A    between atoms: C_9  and  C_10
REMARK    2  A    between atoms: N_11  and  N_19
REMARK    3  A    between atoms: C_12  and  C_13
REMARK    4  A    between atoms: C_20  and  C_22
REMARK                            x       y       z     vdW  Elec       q    Type
REMARK                         _______ _______ _______ _____ _____    ______ ____
ROOT
ATOM      1  C   UNL     1       6.298  -3.122 -20.573  0.00  0.00    -0.061 A 
ATOM      2  C   UNL     1       5.688  -2.220 -19.712  0.00  0.00    -0.060 A 
ATOM      3  C   UNL     1       4.338  -1.892 -19.859  0.00  0.00    -0.037 A 
ATOM      4  C   UNL     1       3.609  -2.486 -20.907  0.00  0.00    +0.057 A 
ATOM      5  C   UNL     1       4.200  -3.415 -21.775  0.00  0.00    +0.009 A 
ATOM      6  C   UNL     1       5.567  -3.730 -21.603  0.00  0.00    -0.052 A 
ATOM      7  N   UNL     1       2.270  -2.357 -21.270  0.00  0.00    -0.282 N 
ATOM      8  C   UNL     1       2.049  -3.169 -22.367  0.00  0.00    +0.023 A 
ATOM      9  C   UNL     1       3.201  -3.851 -22.697  0.00  0.00    +0.020 A 
ATOM     10  C   UNL     1       1.284  -1.549 -20.652  0.00  0.00    +0.263 C 
ATOM     11  O   UNL     1       1.654  -0.510 -20.097  0.00  0.00    -0.267 OA
ENDROOT
BRANCH  10  12
ATOM     12  C   UNL     1      -0.162  -1.885 -20.676  0.00  0.00    +0.040 A 
ATOM     13  C   UNL     1      -1.119  -0.881 -20.874  0.00  0.00    -0.049 A 
ATOM     14  C   UNL     1      -2.476  -1.177 -20.755  0.00  0.00    -0.061 A 
ATOM     15  C   UNL     1      -2.877  -2.484 -20.486  0.00  0.00    -0.062 A 
ATOM     16  C   UNL     1      -1.929  -3.503 -20.376  0.00  0.00    -0.061 A 
ATOM     17  C   UNL     1      -0.569  -3.209 -20.480  0.00  0.00    -0.049 A 
ENDBRANCH  10  12
BRANCH   9  18
ATOM     18  C   UNL     1       3.320  -4.801 -23.789  0.00  0.00    +0.055 C 
ATOM     19  N   UNL     1       3.151  -6.060 -23.544  0.00  0.00    -0.187 NA
BRANCH  19  20
ATOM     20  N   UNL     1       3.267  -6.919 -24.604  0.00  0.00    -0.203 N 
ATOM     21  C   UNL     1       4.463  -7.603 -24.800  0.00  0.00    +0.263 C 
ATOM     22  O   UNL     1       5.458  -7.507 -24.085  0.00  0.00    -0.268 OA
ATOM     23  H   UNL     1       2.512  -7.053 -25.220  0.00  0.00    +0.000 HD
BRANCH  21  24
ATOM     24  C   UNL     1       4.495  -8.544 -25.956  0.00  0.00    +0.038 A 
ATOM     25  C   UNL     1       3.361  -8.812 -26.735  0.00  0.00    -0.049 A 
ATOM     26  C   UNL     1       3.433  -9.730 -27.788  0.00  0.00    -0.047 A 
ATOM     27  C   UNL     1       4.638 -10.370 -28.072  0.00  0.00    +0.018 A 
ATOM     28  C   UNL     1       5.784 -10.080 -27.334  0.00  0.00    -0.047 A 
ATOM     29  C   UNL     1       5.712  -9.164 -26.281  0.00  0.00    -0.049 A 
ATOM     30 BR   UNL     1       4.717 -11.643 -29.468  0.00  0.00    -0.050 Br
ENDBRANCH  21  24
ENDBRANCH  19  20
ENDBRANCH   9  18
TORSDOF 4
ENDMDL
MODEL 3
REMARK VINA RESULT:    -8.967      2.258      5.353
REMARK INTER + INTRA:         -11.752
REMARK INTER:                 -11.189
REMARK INTRA:                  -0.563
REMARK UNBOUND:                -0.688
REMARK  Name = 8d.sdf
REMARK  4 active torsions:
REMARK  status: ('A' for Active; 'I' for Inactive)
REMARK    1  A    between atoms: C_9  and  C_10
REMARK    2  A    between atoms: N_11  and  N_19
REMARK    3  A    between atoms: C_12  and  C_13
REMARK    4  A    between atoms: C_20  and  C_22
REMARK                            x       y       z     vdW  Elec       q    Type
REMARK                         _______ _______ _______ _____ _____    ______ ____
ROOT
ATOM      1  C   UNL     1      -1.004  -0.897 -21.222  0.00  0.00    -0.061 A 
ATOM      2  C   UNL     1      -0.431  -0.349 -20.083  0.00  0.00    -0.060 A 
ATOM      3  C   UNL     1       0.815  -0.787 -19.627  0.00  0.00    -0.037 A 
ATOM      4  C   UNL     1       1.474  -1.806 -20.341  0.00  0.00    +0.057 A 
ATOM      5  C   UNL     1       0.923  -2.358 -21.506  0.00  0.00    +0.009 A 
ATOM      6  C   UNL     1      -0.338  -1.895 -21.945  0.00  0.00    -0.052 A 
ATOM      7  N   UNL     1       2.711  -2.411 -20.128  0.00  0.00    -0.282 N 
ATOM      8  C   UNL     1       2.903  -3.347 -21.127  0.00  0.00    +0.023 A 
ATOM      9  C   UNL     1       1.840  -3.333 -22.005  0.00  0.00    +0.020 A 
ATOM     10  C   UNL     1       3.633  -2.143 -19.085  0.00  0.00    +0.263 C 
ATOM     11  O   UNL     1       3.183  -1.750 -18.005  0.00  0.00    -0.267 OA
ENDROOT
BRANCH  10  12
ATOM     12  C   UNL     1       5.096  -2.349 -19.233  0.00  0.00    +0.040 A 
ATOM     13  C   UNL     1       5.798  -1.718 -20.270  0.00  0.00    -0.049 A 
ATOM     14  C   UNL     1       7.139  -2.025 -20.491  0.00  0.00    -0.061 A 
ATOM     15  C   UNL     1       7.791  -2.922 -19.649  0.00  0.00    -0.062 A 
ATOM     16  C   UNL     1       7.118  -3.484 -18.562  0.00  0.00    -0.061 A 
ATOM     17  C   UNL     1       5.771  -3.192 -18.346  0.00  0.00    -0.049 A 
ENDBRANCH  10  12
BRANCH   9  18
ATOM     18  C   UNL     1       1.722  -4.179 -23.179  0.00  0.00    +0.055 C 
ATOM     19  N   UNL     1       2.732  -4.281 -23.981  0.00  0.00    -0.187 NA
BRANCH  19  20
ATOM     20  N   UNL     1       2.579  -5.093 -25.072  0.00  0.00    -0.203 N 
ATOM     21  C   UNL     1       3.053  -6.400 -25.021  0.00  0.00    +0.263 C 
ATOM     22  O   UNL     1       3.613  -6.913 -24.055  0.00  0.00    -0.268 OA
ATOM     23  H   UNL     1       2.137  -4.757 -25.884  0.00  0.00    +0.000 HD
BRANCH  21  24
ATOM     24  C   UNL     1       2.816  -7.229 -26.238  0.00  0.00    +0.038 A 
ATOM     25  C   UNL     1       3.720  -7.260 -27.310  0.00  0.00    -0.049 A 
ATOM     26  C   UNL     1       3.436  -8.025 -28.446  0.00  0.00    -0.047 A 
ATOM     27  C   UNL     1       2.259  -8.770 -28.507  0.00  0.00    +0.018 A 
ATOM     28  C   UNL     1       1.374  -8.783 -27.431  0.00  0.00    -0.047 A 
ATOM     29  C   UNL     1       1.656  -8.017 -26.297  0.00  0.00    -0.049 A 
ATOM     30 BR   UNL     1       1.861  -9.767 -30.064  0.00  0.00    -0.050 Br
ENDBRANCH  21  24
ENDBRANCH  19  20
ENDBRANCH   9  18
TORSDOF 4
ENDMDL
