MODEL 1
REMARK VINA RESULT:   -10.059      0.000      0.000
REMARK INTER + INTRA:         -15.960
REMARK INTER:                 -14.176
REMARK INTRA:                  -1.784
REMARK UNBOUND:                -1.784
REMARK  Name = native.pdb
REMARK  8 active torsions:
REMARK  status: ('A' for Active; 'I' for Inactive)
REMARK    1  A    between atoms: C_3  and  C_13
REMARK    2  A    between atoms: C_3  and  C_17
REMARK    3  A    between atoms: C_5  and  N_21
REMARK    4  A    between atoms: C_8  and  C_16
REMARK    5  A    between atoms: N_21  and  S_22
REMARK    6  A    between atoms: S_22  and  C_25
REMARK    7  A    between atoms: C_25  and  C_26
REMARK    8  A    between atoms: C_26  and  C_27
REMARK                            x       y       z     vdW  Elec       q    Type
REMARK                         _______ _______ _______ _____ _____    ______ ____
ROOT
ATOM      1  C   UNL     1       5.852  -2.070 -20.609  0.00  0.00    +0.201 C 
ATOM      2  O   UNL     1       6.072  -1.010 -21.191  0.00  0.00    -0.286 OA
ENDROOT
BRANCH   1   9
ATOM      3  C   UNL     1       8.090  -3.449 -20.070  0.00  0.00    +0.041 C 
ATOM      4  C   UNL     1       5.859  -6.023 -23.001  0.00  0.00    -0.018 C 
ATOM      5  C   UNL     1       6.928  -6.753 -22.620  0.00  0.00    +0.034 C 
ATOM      6  N   UNL     1       7.940  -6.320 -21.785  0.00  0.00    -0.236 N 
ATOM      7  C   UNL     1       5.673  -4.597 -22.539  0.00  0.00    +0.004 C 
ATOM      8  N   UNL     1       8.655  -4.564 -20.407  0.00  0.00    -0.235 NA
ATOM      9  C   UNL     1       6.805  -3.184 -20.705  0.00  0.00    +0.048 C 
ATOM     10  C   UNL     1       6.682  -4.218 -21.534  0.00  0.00    +0.013 C 
ATOM     11  C   UNL     1       7.788  -5.143 -21.292  0.00  0.00    +0.157 C 
ATOM     12  H   UNL     1       8.726  -6.876 -21.582  0.00  0.00    +0.000 HD
BRANCH   4  14
ATOM     13  C   UNL     1       2.705  -7.655 -25.397  0.00  0.00    +0.041 A 
ATOM     14  C   UNL     1       4.796  -6.549 -23.886  0.00  0.00    -0.020 A 
ATOM     15  C   UNL     1       5.011  -7.694 -24.667  0.00  0.00    -0.053 A 
ATOM     16  C   UNL     1       3.967  -8.244 -25.421  0.00  0.00    -0.043 A 
ATOM     17  C   UNL     1       2.477  -6.519 -24.628  0.00  0.00    -0.043 A 
ATOM     18  C   UNL     1       3.520  -5.970 -23.880  0.00  0.00    -0.053 A 
ATOM     19 CL   UNL     1       1.419  -8.339 -26.310  0.00  0.00    -0.084 Cl
ENDBRANCH   4  14
ENDBRANCH   1   9
BRANCH   1  24
ATOM     20  C   UNL     1       3.395  -2.524 -20.344  0.00  0.00    +0.159 A 
ATOM     21  C   UNL     1       2.280  -2.739 -19.520  0.00  0.00    +0.084 A 
ATOM     22  C   UNL     1       2.395  -2.569 -18.141  0.00  0.00    -0.034 A 
ATOM     23  C   UNL     1       4.733  -2.018 -18.413  0.00  0.00    +0.137 A 
ATOM     24  C   UNL     1       4.639  -2.211 -19.791  0.00  0.00    +0.094 A 
ATOM     25  C   UNL     1       3.623  -2.199 -17.590  0.00  0.00    -0.024 A 
ATOM     26  F   UNL     1       5.899  -1.696 -17.837  0.00  0.00    -0.205 F 
ATOM     27  F   UNL     1       3.258  -2.660 -21.672  0.00  0.00    -0.203 F 
BRANCH  21  28
ATOM     28  N   UNL     1       1.005  -3.108 -20.074  0.00  0.00    -0.218 N 
ATOM     29  H   UNL     1       0.706  -4.046 -20.111  0.00  0.00    +0.000 HD
BRANCH  28  30
ATOM     30  S   UNL     1       0.040  -1.830 -20.659  0.00  0.00    +0.043 S 
ATOM     31  O   UNL     1       0.168  -0.694 -19.774  0.00  0.00    -0.155 OA
ATOM     32  O   UNL     1       0.356  -1.747 -22.068  0.00  0.00    -0.155 OA
BRANCH  30  33
ATOM     33  C   UNL     1      -1.613  -2.522 -20.493  0.00  0.00    +0.085 C 
BRANCH  33  34
ATOM     34  C   UNL     1      -2.671  -1.421 -20.565  0.00  0.00    -0.035 C 
ATOM     35  C   UNL     1      -4.050  -1.958 -20.920  0.00  0.00    -0.064 C 
ENDBRANCH  33  34
ENDBRANCH  30  33
ENDBRANCH  28  30
ENDBRANCH  21  28
ENDBRANCH   1  24
TORSDOF 7
ENDMDL
MODEL 2
REMARK VINA RESULT:    -9.963      3.945      5.726
REMARK INTER + INTRA:         -15.824
REMARK INTER:                 -15.577
REMARK INTRA:                  -0.247
REMARK UNBOUND:                -1.784
REMARK  Name = native.pdb
REMARK  8 active torsions:
REMARK  status: ('A' for Active; 'I' for Inactive)
REMARK    1  A    between atoms: C_3  and  C_13
REMARK    2  A    between atoms: C_3  and  C_17
REMARK    3  A    between atoms: C_5  and  N_21
REMARK    4  A    between atoms: C_8  and  C_16
REMARK    5  A    between atoms: N_21  and  S_22
REMARK    6  A    between atoms: S_22  and  C_25
REMARK    7  A    between atoms: C_25  and  C_26
REMARK    8  A    between atoms: C_26  and  C_27
REMARK                            x       y       z     vdW  Elec       q    Type
REMARK                         _______ _______ _______ _____ _____    ______ ____
ROOT
ATOM      1  C   UNL     1       1.728  -2.711 -20.526  0.00  0.00    +0.201 C 
ATOM      2  O   UNL     1       2.199  -3.443 -21.393  0.00  0.00    -0.286 OA
ENDROOT
BRANCH   1   9
ATOM      3  C   UNL     1       2.235  -1.718 -18.085  0.00  0.00    +0.041 C 
ATOM      4  C   UNL     1       6.292  -2.567 -19.820  0.00  0.00    -0.018 C 
ATOM      5  C   UNL     1       6.517  -2.184 -18.546  0.00  0.00    +0.034 C 
ATOM      6  N   UNL     1       5.555  -1.745 -17.657  0.00  0.00    -0.236 N 
ATOM      7  C   UNL     1       4.906  -2.534 -20.421  0.00  0.00    +0.004 C 
ATOM      8  N   UNL     1       3.253  -1.435 -17.337  0.00  0.00    -0.235 NA
ATOM      9  C   UNL     1       2.556  -2.265 -19.397  0.00  0.00    +0.048 C 
ATOM     10  C   UNL     1       3.886  -2.210 -19.408  0.00  0.00    +0.013 C 
ATOM     11  C   UNL     1       4.345  -1.779 -18.087  0.00  0.00    +0.157 C 
ATOM     12  H   UNL     1       5.782  -1.426 -16.755  0.00  0.00    +0.000 HD
BRANCH   4  14
ATOM     13  C   UNL     1       9.400  -4.134 -22.316  0.00  0.00    +0.041 A 
ATOM     14  C   UNL     1       7.364  -3.046 -20.721  0.00  0.00    -0.020 A 
ATOM     15  C   UNL     1       8.709  -2.736 -20.467  0.00  0.00    -0.053 A 
ATOM     16  C   UNL     1       9.723  -3.279 -21.265  0.00  0.00    -0.043 A 
ATOM     17  C   UNL     1       8.072  -4.449 -22.581  0.00  0.00    -0.043 A 
ATOM     18  C   UNL     1       7.061  -3.904 -21.787  0.00  0.00    -0.053 A 
ATOM     19 CL   UNL     1      10.647  -4.814 -23.287  0.00  0.00    -0.084 Cl
ENDBRANCH   4  14
ENDBRANCH   1   9
BRANCH   1  24
ATOM     20  C   UNL     1      -0.750  -3.133 -20.515  0.00  0.00    +0.159 A 
ATOM     21  C   UNL     1      -2.065  -2.649 -20.535  0.00  0.00    +0.084 A 
ATOM     22  C   UNL     1      -2.300  -1.292 -20.750  0.00  0.00    -0.034 A 
ATOM     23  C   UNL     1       0.083  -0.909 -20.877  0.00  0.00    +0.137 A 
ATOM     24  C   UNL     1       0.333  -2.259 -20.635  0.00  0.00    +0.094 A 
ATOM     25  C   UNL     1      -1.223  -0.423 -20.929  0.00  0.00    -0.024 A 
ATOM     26  F   UNL     1       1.086  -0.033 -21.021  0.00  0.00    -0.205 F 
ATOM     27  F   UNL     1      -0.543  -4.448 -20.339  0.00  0.00    -0.203 F 
BRANCH  21  28
ATOM     28  N   UNL     1      -3.187  -3.533 -20.364  0.00  0.00    -0.218 N 
ATOM     29  H   UNL     1      -3.179  -4.456 -20.706  0.00  0.00    +0.000 HD
BRANCH  28  30
ATOM     30  S   UNL     1      -4.532  -2.891 -19.535  0.00  0.00    +0.043 S 
ATOM     31  O   UNL     1      -4.143  -1.663 -18.878  0.00  0.00    -0.155 OA
ATOM     32  O   UNL     1      -5.613  -2.942 -20.493  0.00  0.00    -0.155 OA
BRANCH  30  33
ATOM     33  C   UNL     1      -4.823  -4.157 -18.289  0.00  0.00    +0.085 C 
BRANCH  33  34
ATOM     34  C   UNL     1      -4.273  -3.720 -16.932  0.00  0.00    -0.035 C 
ATOM     35  C   UNL     1      -5.349  -3.145 -16.022  0.00  0.00    -0.064 C 
ENDBRANCH  33  34
ENDBRANCH  30  33
ENDBRANCH  28  30
ENDBRANCH  21  28
ENDBRANCH   1  24
TORSDOF 7
ENDMDL
MODEL 3
REMARK VINA RESULT:    -9.614      3.882      8.075
REMARK INTER + INTRA:         -15.333
REMARK INTER:                 -13.669
REMARK INTRA:                  -1.665
REMARK UNBOUND:                -1.784
REMARK  Name = native.pdb
REMARK  8 active torsions:
REMARK  status: ('A' for Active; 'I' for Inactive)
REMARK    1  A    between atoms: C_3  and  C_13
REMARK    2  A    between atoms: C_3  and  C_17
REMARK    3  A    between atoms: C_5  and  N_21
REMARK    4  A    between atoms: C_8  and  C_16
REMARK    5  A    between atoms: N_21  and  S_22
REMARK    6  A    between atoms: S_22  and  C_25
REMARK    7  A    between atoms: C_25  and  C_26
REMARK    8  A    between atoms: C_26  and  C_27
REMARK                            x       y       z     vdW  Elec       q    Type
REMARK                         _______ _______ _______ _____ _____    ______ ____
ROOT
ATOM      1  C   UNL     1       5.021  -3.327 -23.147  0.00  0.00    +0.201 C 
ATOM      2  O   UNL     1       5.191  -2.473 -24.014  0.00  0.00    -0.286 OA
ENDROOT
BRANCH   1   9
ATOM      3  C   UNL     1       6.059  -2.754 -20.739  0.00  0.00    +0.041 C 
ATOM      4  C   UNL     1       1.622  -2.308 -20.187  0.00  0.00    -0.018 C 
ATOM      5  C   UNL     1       2.173  -1.903 -19.024  0.00  0.00    +0.034 C 
ATOM      6  N   UNL     1       3.518  -1.950 -18.714  0.00  0.00    -0.236 N 
ATOM      7  C   UNL     1       2.464  -2.888 -21.299  0.00  0.00    +0.004 C 
ATOM      8  N   UNL     1       5.655  -2.417 -19.556  0.00  0.00    -0.235 NA
ATOM      9  C   UNL     1       5.005  -2.952 -21.726  0.00  0.00    +0.048 C 
ATOM     10  C   UNL     1       3.903  -2.782 -20.999  0.00  0.00    +0.013 C 
ATOM     11  C   UNL     1       4.292  -2.354 -19.656  0.00  0.00    +0.157 C 
ATOM     12  H   UNL     1       3.860  -1.691 -17.828  0.00  0.00    +0.000 HD
BRANCH   4  14
ATOM     13  C   UNL     1      -2.609  -2.027 -20.793  0.00  0.00    +0.041 A 
ATOM     14  C   UNL     1       0.171  -2.217 -20.469  0.00  0.00    -0.020 A 
ATOM     15  C   UNL     1      -0.612  -3.375 -20.589  0.00  0.00    -0.053 A 
ATOM     16  C   UNL     1      -1.999  -3.278 -20.752  0.00  0.00    -0.043 A 
ATOM     17  C   UNL     1      -1.847  -0.870 -20.677  0.00  0.00    -0.043 A 
ATOM     18  C   UNL     1      -0.463  -0.969 -20.518  0.00  0.00    -0.053 A 
ATOM     19 CL   UNL     1      -4.315  -1.908 -20.978  0.00  0.00    -0.084 Cl
ENDBRANCH   4  14
ENDBRANCH   1   9
BRANCH   1  24
ATOM     20  C   UNL     1       5.771  -5.718 -23.334  0.00  0.00    +0.159 A 
ATOM     21  C   UNL     1       5.493  -7.059 -23.639  0.00  0.00    +0.084 A 
ATOM     22  C   UNL     1       4.272  -7.399 -24.218  0.00  0.00    -0.034 A 
ATOM     23  C   UNL     1       3.600  -5.078 -24.143  0.00  0.00    +0.137 A 
ATOM     24  C   UNL     1       4.808  -4.728 -23.538  0.00  0.00    +0.094 A 
ATOM     25  C   UNL     1       3.328  -6.404 -24.478  0.00  0.00    -0.024 A 
ATOM     26  F   UNL     1       2.652  -4.162 -24.380  0.00  0.00    -0.205 F 
ATOM     27  F   UNL     1       6.964  -5.405 -22.807  0.00  0.00    -0.203 F 
BRANCH  21  28
ATOM     28  N   UNL     1       6.460  -8.095 -23.389  0.00  0.00    -0.218 N 
ATOM     29  H   UNL     1       6.366  -8.724 -22.637  0.00  0.00    +0.000 HD
BRANCH  28  30
ATOM     30  S   UNL     1       7.776  -8.173 -24.471  0.00  0.00    +0.043 S 
ATOM     31  O   UNL     1       7.411  -7.525 -25.711  0.00  0.00    -0.155 OA
ATOM     32  O   UNL     1       8.918  -7.751 -23.691  0.00  0.00    -0.155 OA
BRANCH  30  33
ATOM     33  C   UNL     1       7.908  -9.946 -24.749  0.00  0.00    +0.085 C 
BRANCH  33  34
ATOM     34  C   UNL     1       8.069 -10.251 -26.238  0.00  0.00    -0.035 C 
ATOM     35  C   UNL     1       7.206 -11.418 -26.694  0.00  0.00    -0.064 C 
ENDBRANCH  33  34
ENDBRANCH  30  33
ENDBRANCH  28  30
ENDBRANCH  21  28
ENDBRANCH   1  24
TORSDOF 7
ENDMDL
