REMARK  Name = 22a.sdf
REMARK  7 active torsions:
REMARK  status: ('A' for Active; 'I' for Inactive)
REMARK    1  A    between atoms: N_7  and  C_12
REMARK    2  A    between atoms: C_9  and  C_10
REMARK    3  A    between atoms: N_11  and  N_19
REMARK    4  A    between atoms: C_12  and  C_13
REMARK    5  A    between atoms: C_20  and  C_22
REMARK    6  A    between atoms: C_25  and  O_29
REMARK    7  A    between atoms: O_29  and  C_30
REMARK                            x       y       z     vdW  Elec       q    Type
REMARK                         _______ _______ _______ _____ _____    ______ ____
ROOT
ATOM      1  C   UNL     1      -2.130  -0.907  -0.070  0.00  0.00    -0.061 A 
ATOM      2  C   UNL     1      -2.180   0.476  -0.195  0.00  0.00    -0.060 A 
ATOM      3  C   UNL     1      -1.008   1.238  -0.217  0.00  0.00    -0.038 A 
ATOM      4  C   UNL     1       0.226   0.572  -0.120  0.00  0.00    +0.050 A 
ATOM      5  C   UNL     1       0.302  -0.826  -0.041  0.00  0.00    +0.009 A 
ATOM      6  C   UNL     1      -0.900  -1.568  -0.001  0.00  0.00    -0.052 A 
ATOM      7  N   UNL     1       1.523   1.048  -0.067  0.00  0.00    -0.342 N 
ATOM      8  C   UNL     1       2.403  -0.006  -0.037  0.00  0.00    +0.015 A 
ATOM      9  C   UNL     1       1.686  -1.187  -0.029  0.00  0.00    +0.020 A 
ENDROOT
BRANCH   9  10
ATOM     10  C   UNL     1       2.244  -2.521  -0.014  0.00  0.00    +0.055 C 
ATOM     11  N   UNL     1       3.530  -2.682  -0.047  0.00  0.00    -0.187 NA
BRANCH  11  12
ATOM     12  N   UNL     1       3.976  -3.976  -0.039  0.00  0.00    -0.203 N 
ATOM     13  C   UNL     1       5.341  -4.223  -0.054  0.00  0.00    +0.263 C 
ATOM     14  O   UNL     1       6.216  -3.364  -0.059  0.00  0.00    -0.268 OA
ATOM     15  H   UNL     1       3.336  -4.724  -0.022  0.00  0.00    +0.000 HD
BRANCH  13  16
ATOM     16  C   UNL     1       5.745  -5.661  -0.017  0.00  0.00    +0.039 A 
ATOM     17  C   UNL     1       4.953  -6.681  -0.553  0.00  0.00    -0.046 A 
ATOM     18  C   UNL     1       5.383  -8.010  -0.472  0.00  0.00    -0.019 A 
ATOM     19  C   UNL     1       6.610  -8.333   0.115  0.00  0.00    +0.120 A 
ATOM     20  C   UNL     1       7.410  -7.315   0.631  0.00  0.00    -0.019 A 
ATOM     21  C   UNL     1       6.980  -5.984   0.562  0.00  0.00    -0.046 A 
BRANCH  19  22
ATOM     22  O   UNL     1       6.891  -9.670   0.172  0.00  0.00    -0.495 OA
ATOM     23  C   UNL     1       8.267 -10.027   0.205  0.00  0.00    +0.079 C 
ENDBRANCH  19  22
ENDBRANCH  13  16
ENDBRANCH  11  12
ENDBRANCH   9  10
BRANCH   7  24
ATOM     24  C   UNL     1       1.927   2.449   0.049  0.00  0.00    +0.048 C 
BRANCH  24  25
ATOM     25  C   UNL     1       2.193   3.067  -1.300  0.00  0.00    -0.028 A 
ATOM     26  C   UNL     1       1.188   3.781  -1.969  0.00  0.00    -0.056 A 
ATOM     27  C   UNL     1       1.394   4.250  -3.268  0.00  0.00    -0.047 A 
ATOM     28  C   UNL     1       2.613   4.020  -3.900  0.00  0.00    +0.018 A 
ATOM     29  C   UNL     1       3.643   3.364  -3.230  0.00  0.00    -0.047 A 
ATOM     30  C   UNL     1       3.434   2.890  -1.933  0.00  0.00    -0.056 A 
ATOM     31 BR   UNL     1       2.857   4.569  -5.692  0.00  0.00    -0.050 Br
ENDBRANCH  24  25
ENDBRANCH   7  24
TORSDOF 6
