REMARK  Name = 7.sdf
REMARK  4 active torsions:
REMARK  status: ('A' for Active; 'I' for Inactive)
REMARK    1  A    between atoms: C_9  and  C_10
REMARK    2  A    between atoms: C_10  and  C_11
REMARK    3  A    between atoms: C_11  and  O_13
REMARK    4  A    between atoms: O_13  and  C_14
REMARK                            x       y       z     vdW  Elec       q    Type
REMARK                         _______ _______ _______ _____ _____    ______ ____
ROOT
ATOM      1  C   UNL     1       2.279  -0.400  -0.136  0.00  0.00    -0.061 A 
ATOM      2  C   UNL     1       2.121   0.983  -0.077  0.00  0.00    -0.060 A 
ATOM      3  C   UNL     1       0.848   1.558  -0.039  0.00  0.00    -0.038 A 
ATOM      4  C   UNL     1      -0.256   0.697  -0.051  0.00  0.00    +0.047 A 
ATOM      5  C   UNL     1      -0.134  -0.693  -0.092  0.00  0.00    +0.003 A 
ATOM      6  C   UNL     1       1.163  -1.247  -0.144  0.00  0.00    -0.052 A 
ATOM      7  N   UNL     1      -1.600   0.985  -0.029  0.00  0.00    -0.360 N 
ATOM      8  C   UNL     1      -2.332  -0.170  -0.012  0.00  0.00    +0.006 A 
ATOM      9  C   UNL     1      -1.459  -1.242  -0.047  0.00  0.00    -0.012 A 
ATOM     10  H   UNL     1      -1.981   1.893  -0.025  0.00  0.00    +0.000 HD
ENDROOT
BRANCH   9  11
ATOM     11  C   UNL     1      -1.839  -2.689   0.010  0.00  0.00    +0.072 C 
BRANCH  11  12
ATOM     12  C   UNL     1      -2.114  -3.316  -1.341  0.00  0.00    +0.311 C 
ATOM     13  O   UNL     1      -2.092  -2.760  -2.430  0.00  0.00    -0.250 OA
BRANCH  12  14
ATOM     14  O   UNL     1      -2.421  -4.638  -1.152  0.00  0.00    -0.468 OA
ATOM     15  C   UNL     1      -2.721  -5.365  -2.346  0.00  0.00    +0.082 C 
ENDBRANCH  12  14
ENDBRANCH  11  12
ENDBRANCH   9  11
TORSDOF 3
