REMARK  Name = native.pdb
REMARK  9 active torsions:
REMARK  status: ('A' for Active; 'I' for Inactive)
REMARK    1  A    between atoms: P_1  and  O_8
REMARK    2  A    between atoms: P_5  and  O_8
REMARK    3  A    between atoms: P_5  and  O_9
REMARK    4  A    between atoms: O_9  and  C_10
REMARK    5  A    between atoms: C_10  and  C_11
REMARK    6  A    between atoms: C_13  and  O_14
REMARK    7  A    between atoms: C_15  and  O_16
REMARK    8  A    between atoms: C_17  and  N_18
REMARK    9  A    between atoms: C_22  and  N_23
REMARK                            x       y       z     vdW  Elec       q    Type
REMARK                         _______ _______ _______ _____ _____    ______ ____
ROOT
ATOM      1  C   UNL     1       4.349   4.172  -2.840  0.00  0.00    +0.113 C 
ATOM      2  O   UNL     1       4.224   4.479  -4.251  0.00  0.00    -0.346 OA
ATOM      3  C   UNL     1       4.041   5.468  -2.084  0.00  0.00    +0.114 C 
ATOM      4  C   UNL     1       3.273   6.319  -3.086  0.00  0.00    +0.129 C 
ATOM      5  C   UNL     1       3.892   5.878  -4.411  0.00  0.00    +0.167 C 
ENDROOT
BRANCH   5   6
ATOM      6  N   UNL     1       3.010   6.029  -5.550  0.00  0.00    -0.286 N 
ATOM      7  C   UNL     1       2.037   5.149  -5.948  0.00  0.00    +0.100 A 
ATOM      8  N   UNL     1       1.394   5.569  -7.016  0.00  0.00    -0.231 NA
ATOM      9  C   UNL     1       1.990   6.773  -7.332  0.00  0.00    +0.147 A 
ATOM     10  C   UNL     1       1.769   7.696  -8.369  0.00  0.00    +0.147 A 
ATOM     11  N   UNL     1       2.554   8.795  -8.438  0.00  0.00    -0.219 NA
ATOM     12  C   UNL     1       3.499   8.964  -7.486  0.00  0.00    +0.120 A 
ATOM     13  N   UNL     1       3.805   8.154  -6.450  0.00  0.00    -0.216 NA
ATOM     14  C   UNL     1       3.006   7.074  -6.435  0.00  0.00    +0.167 A 
BRANCH  10  15
ATOM     15  N   UNL     1       0.794   7.523  -9.346  0.00  0.00    -0.341 N 
ATOM     16  H   UNL     1       0.208   6.733  -9.322  0.00  0.00    +0.000 HD
ATOM     17  H   UNL     1       0.691   8.191 -10.062  0.00  0.00    +0.000 HD
ENDBRANCH  10  15
ENDBRANCH   5   6
BRANCH   3  18
ATOM     18  O   UNL     1       5.251   6.170  -1.739  0.00  0.00    -0.386 OA
ATOM     19  H   UNL     1       5.754   6.363  -2.546  0.00  0.00    +0.000 HD
ENDBRANCH   3  18
BRANCH   4  20
ATOM     20  O   UNL     1       3.429   7.711  -2.816  0.00  0.00    -0.385 OA
ATOM     21  H   UNL     1       4.373   7.935  -2.812  0.00  0.00    +0.000 HD
ENDBRANCH   4  20
BRANCH   1  22
ATOM     22  C   UNL     1       3.424   2.998  -2.480  0.00  0.00    +0.088 C 
BRANCH  22  23
ATOM     23  O   UNL     1       3.879   1.821  -3.145  0.00  0.00    -0.284 OA
BRANCH  23  24
ATOM     24  P   UNL     1       3.009   0.477  -2.965  0.00  0.00    +0.483 P 
ATOM     25  O   UNL     1       2.809   0.072  -1.542  0.00  0.00    -0.227 OA
ATOM     26  O   UNL     1       1.650   0.853  -3.728  0.00  0.00    -0.302 OA
BRANCH  24  27
ATOM     27  O   UNL     1       3.679  -0.624  -3.903  0.00  0.00    -0.186 OA
BRANCH  27  28
ATOM     28  P   UNL     1       4.043  -0.353  -5.416  0.00  0.00    +0.481 P 
ATOM     29  O   UNL     1       3.584   0.945  -5.990  0.00  0.00    -0.227 OA
ATOM     30  O   UNL     1       5.576  -0.745  -5.609  0.00  0.00    -0.302 OA
ATOM     31  O   UNL     1       3.382  -1.555  -6.236  0.00  0.00    -0.302 OA
ENDBRANCH  27  28
ENDBRANCH  24  27
ENDBRANCH  23  24
ENDBRANCH  22  23
ENDBRANCH   1  22
TORSDOF 9
