REMARK  Name = native.pdb
REMARK  11 active torsions:
REMARK  status: ('A' for Active; 'I' for Inactive)
REMARK    1  A    between atoms: P_1  and  O_8
REMARK    2  A    between atoms: P_5  and  O_8
REMARK    3  A    between atoms: P_5  and  O_12
REMARK    4  A    between atoms: P_9  and  O_12
REMARK    5  A    between atoms: P_9  and  O_13
REMARK    6  A    between atoms: O_13  and  C_14
REMARK    7  A    between atoms: C_14  and  C_15
REMARK    8  A    between atoms: C_17  and  O_18
REMARK    9  A    between atoms: C_19  and  O_20
REMARK   10  A    between atoms: C_21  and  N_22
REMARK   11  A    between atoms: C_26  and  N_27
REMARK                            x       y       z     vdW  Elec       q    Type
REMARK                         _______ _______ _______ _____ _____    ______ ____
ROOT
ATOM      1  C   UNL     1       8.886  -2.301  -2.958  0.00  0.00    +0.113 C 
ATOM      2  O   UNL     1       9.489  -3.588  -2.675  0.00  0.00    -0.346 OA
ATOM      3  C   UNL     1       9.586  -1.809  -4.236  0.00  0.00    +0.114 C 
ATOM      4  C   UNL     1       9.925  -3.093  -4.987  0.00  0.00    +0.129 C 
ATOM      5  C   UNL     1      10.259  -4.038  -3.831  0.00  0.00    +0.167 C 
ENDROOT
BRANCH   5   6
ATOM      6  N   UNL     1       9.933  -5.422  -4.092  0.00  0.00    -0.286 N 
ATOM      7  C   UNL     1       8.724  -6.029  -3.857  0.00  0.00    +0.100 A 
ATOM      8  N   UNL     1       8.736  -7.306  -4.152  0.00  0.00    -0.231 NA
ATOM      9  C   UNL     1      10.024  -7.549  -4.597  0.00  0.00    +0.147 A 
ATOM     10  C   UNL     1      10.665  -8.719  -5.026  0.00  0.00    +0.147 A 
ATOM     11  N   UNL     1      11.971  -8.651  -5.380  0.00  0.00    -0.219 NA
ATOM     12  C   UNL     1      12.582  -7.447  -5.319  0.00  0.00    +0.120 A 
ATOM     13  N   UNL     1      12.074  -6.259  -4.912  0.00  0.00    -0.216 NA
ATOM     14  C   UNL     1      10.788  -6.386  -4.566  0.00  0.00    +0.167 A 
BRANCH  10  15
ATOM     15  N   UNL     1      10.032  -9.963  -5.072  0.00  0.00    -0.341 N 
ATOM     16  H   UNL     1       9.084 -10.043  -4.820  0.00  0.00    +0.000 HD
ATOM     17  H   UNL     1      10.535 -10.761  -5.356  0.00  0.00    +0.000 HD
ENDBRANCH  10  15
ENDBRANCH   5   6
BRANCH   3  18
ATOM     18  O   UNL     1      10.837  -1.149  -3.937  0.00  0.00    -0.386 OA
ATOM     19  H   UNL     1      11.415  -1.758  -3.451  0.00  0.00    +0.000 HD
ENDBRANCH   3  18
BRANCH   4  20
ATOM     20  O   UNL     1      11.000  -2.904  -5.904  0.00  0.00    -0.385 OA
ATOM     21  H   UNL     1      11.774  -2.563  -5.429  0.00  0.00    +0.000 HD
ENDBRANCH   4  20
BRANCH   1  22
ATOM     22  C   UNL     1       7.346  -2.445  -3.090  0.00  0.00    +0.088 C 
BRANCH  22  23
ATOM     23  O   UNL     1       6.654  -2.966  -1.930  0.00  0.00    -0.284 OA
BRANCH  23  24
ATOM     24  P   UNL     1       6.394  -2.029  -0.636  0.00  0.00    +0.483 P 
ATOM     25  O   UNL     1       6.430  -0.567  -0.942  0.00  0.00    -0.227 OA
ATOM     26  O   UNL     1       7.554  -2.544   0.337  0.00  0.00    -0.302 OA
BRANCH  24  27
ATOM     27  O   UNL     1       5.025  -2.513   0.113  0.00  0.00    -0.186 OA
BRANCH  27  28
ATOM     28  P   UNL     1       3.715  -1.975  -0.881  0.00  0.00    +0.492 P 
ATOM     29  O   UNL     1       2.818  -1.852   0.353  0.00  0.00    -0.226 OA
ATOM     30  O   UNL     1       3.531  -3.496  -1.467  0.00  0.00    -0.302 OA
BRANCH  28  31
ATOM     31  O   UNL     1       2.405  -1.438  -1.874  0.00  0.00    -0.186 OA
BRANCH  31  32
ATOM     32  P   UNL     1       3.033  -0.710  -3.313  0.00  0.00    +0.481 P 
ATOM     33  O   UNL     1       4.233  -1.663  -3.370  0.00  0.00    -0.227 OA
ATOM     34  O   UNL     1       1.887  -1.407  -4.231  0.00  0.00    -0.302 OA
ATOM     35  O   UNL     1       3.661   0.018  -4.751  0.00  0.00    -0.302 OA
ENDBRANCH  31  32
ENDBRANCH  28  31
ENDBRANCH  27  28
ENDBRANCH  24  27
ENDBRANCH  23  24
ENDBRANCH  22  23
ENDBRANCH   1  22
TORSDOF 11
