MODEL 1
REMARK VINA RESULT:    -8.588      0.000      0.000
REMARK INTER + INTRA:         -12.576
REMARK INTER:                 -11.600
REMARK INTRA:                  -0.976
REMARK UNBOUND:                -0.976
REMARK  Name = 26a.sdf
REMARK  7 active torsions:
REMARK  status: ('A' for Active; 'I' for Inactive)
REMARK    1  A    between atoms: N_7  and  C_10
REMARK    2  A    between atoms: C_9  and  C_18
REMARK    3  A    between atoms: C_10  and  C_11
REMARK    4  A    between atoms: N_19  and  N_20
REMARK    5  A    between atoms: C_21  and  C_23
REMARK    6  A    between atoms: C_26  and  O_29
REMARK    7  A    between atoms: C_28  and  O_30
REMARK                            x       y       z     vdW  Elec       q    Type
REMARK                         _______ _______ _______ _____ _____    ______ ____
ROOT
ATOM      1  C   UNL     1      79.542  73.961  30.284  0.00  0.00    -0.061 A 
ATOM      2  C   UNL     1      78.928  74.793  29.356  0.00  0.00    -0.060 A 
ATOM      3  C   UNL     1      77.703  75.406  29.639  0.00  0.00    -0.038 A 
ATOM      4  C   UNL     1      77.109  75.167  30.890  0.00  0.00    +0.050 A 
ATOM      5  C   UNL     1      77.734  74.370  31.858  0.00  0.00    +0.009 A 
ATOM      6  C   UNL     1      78.961  73.749  31.538  0.00  0.00    -0.052 A 
ATOM      7  N   UNL     1      75.903  75.581  31.426  0.00  0.00    -0.342 N 
ATOM      8  C   UNL     1      75.796  75.140  32.720  0.00  0.00    +0.015 A 
ATOM      9  C   UNL     1      76.911  74.388  33.028  0.00  0.00    +0.020 A 
ENDROOT
BRANCH   9  10
ATOM     10  C   UNL     1      77.170  73.749  34.301  0.00  0.00    +0.055 C 
ATOM     11  N   UNL     1      77.331  72.467  34.352  0.00  0.00    -0.187 NA
BRANCH  11  12
ATOM     12  N   UNL     1      77.557  71.964  35.598  0.00  0.00    -0.203 N 
ATOM     13  C   UNL     1      77.220  70.661  35.913  0.00  0.00    +0.267 C 
ATOM     14  O   UNL     1      76.717  69.854  35.130  0.00  0.00    -0.268 OA
ATOM     15  H   UNL     1      77.965  72.538  36.285  0.00  0.00    +0.000 HD
BRANCH  13  16
ATOM     16  C   UNL     1      77.497  70.236  37.326  0.00  0.00    +0.080 A 
ATOM     17  C   UNL     1      78.466  70.962  38.041  0.00  0.00    -0.043 A 
ATOM     18  C   UNL     1      78.796  70.625  39.356  0.00  0.00    -0.019 A 
ATOM     19  C   UNL     1      78.151  69.554  39.964  0.00  0.00    +0.120 A 
ATOM     20  C   UNL     1      77.183  68.824  39.285  0.00  0.00    +0.022 A 
ATOM     21  C   UNL     1      76.857  69.163  37.968  0.00  0.00    +0.132 A 
BRANCH  19  22
ATOM     22  O   UNL     1      78.445  69.177  41.240  0.00  0.00    -0.507 OA
ATOM     23  H   UNL     1      77.921  68.531  41.671  0.00  0.00    +0.000 HD
ENDBRANCH  19  22
BRANCH  21  24
ATOM     24  O   UNL     1      75.903  68.417  37.321  0.00  0.00    -0.506 OA
ATOM     25  H   UNL     1      75.268  67.937  37.817  0.00  0.00    +0.000 HD
ENDBRANCH  21  24
ENDBRANCH  13  16
ENDBRANCH  11  12
ENDBRANCH   9  10
BRANCH   7  26
ATOM     26  C   UNL     1      74.831  76.276  30.718  0.00  0.00    +0.048 C 
BRANCH  26  27
ATOM     27  C   UNL     1      74.283  77.426  31.525  0.00  0.00    -0.028 A 
ATOM     28  C   UNL     1      72.953  77.415  31.968  0.00  0.00    -0.056 A 
ATOM     29  C   UNL     1      72.409  78.526  32.614  0.00  0.00    -0.047 A 
ATOM     30  C   UNL     1      73.199  79.652  32.832  0.00  0.00    +0.018 A 
ATOM     31  C   UNL     1      74.538  79.661  32.449  0.00  0.00    -0.047 A 
ATOM     32  C   UNL     1      75.078  78.549  31.798  0.00  0.00    -0.056 A 
ATOM     33 BR   UNL     1      72.436  81.190  33.622  0.00  0.00    -0.050 Br
ENDBRANCH  26  27
ENDBRANCH   7  26
TORSDOF 7
ENDMDL
