REMARK  Name = 14.sdf
REMARK  4 active torsions:
REMARK  status: ('A' for Active; 'I' for Inactive)
REMARK    1  A    between atoms: C_9  and  C_10
REMARK    2  A    between atoms: C_10  and  O_11
REMARK    3  A    between atoms: O_11  and  C_12
REMARK    4  A    between atoms: C_12  and  C_13
REMARK                            x       y       z     vdW  Elec       q    Type
REMARK                         _______ _______ _______ _____ _____    ______ ____
ROOT
ATOM      1  C   UNL     1       2.229  -0.621  -0.012  0.00  0.00    -0.061 A 
ATOM      2  C   UNL     1       2.160   0.768  -0.022  0.00  0.00    -0.060 A 
ATOM      3  C   UNL     1       0.926   1.424  -0.018  0.00  0.00    -0.038 A 
ATOM      4  C   UNL     1      -0.233   0.636  -0.014  0.00  0.00    +0.047 A 
ATOM      5  C   UNL     1      -0.201  -0.759  -0.008  0.00  0.00    +0.006 A 
ATOM      6  C   UNL     1       1.061  -1.393  -0.001  0.00  0.00    -0.052 A 
ATOM      7  N   UNL     1      -1.556   1.011  -0.019  0.00  0.00    -0.360 N 
ATOM      8  C   UNL     1      -2.362  -0.095  -0.029  0.00  0.00    +0.009 A 
ATOM      9  C   UNL     1      -1.559  -1.224  -0.020  0.00  0.00    +0.015 A 
ATOM     10  H   UNL     1      -1.877   1.942  -0.015  0.00  0.00    +0.000 HD
ENDROOT
BRANCH   9  11
ATOM     11  C   UNL     1      -2.032  -2.651  -0.026  0.00  0.00    +0.119 C 
BRANCH  11  12
ATOM     12  O   UNL     1      -1.595  -3.362  -1.225  0.00  0.00    -0.460 OA
BRANCH  12  13
ATOM     13  C   UNL     1      -0.825  -4.482  -1.068  0.00  0.00    +0.304 C 
ATOM     14  C   UNL     1      -0.415  -5.148  -2.362  0.00  0.00    +0.033 C 
ATOM     15  O   UNL     1      -0.480  -4.945   0.002  0.00  0.00    -0.251 OA
ENDBRANCH  12  13
ENDBRANCH  11  12
ENDBRANCH   9  11
TORSDOF 3
