MODEL 1
REMARK VINA RESULT:    -5.860      0.000      0.000
REMARK INTER + INTRA:          -5.860
REMARK INTER:                  -5.860
REMARK INTRA:                   0.000
REMARK UNBOUND:                 0.000
REMARK  Name = 0.sdf
REMARK  0 active torsions:
REMARK  status: ('A' for Active; 'I' for Inactive)
REMARK                            x       y       z     vdW  Elec       q    Type
REMARK                         _______ _______ _______ _____ _____    ______ ____
ROOT
ATOM      1  C   UNL     1     -25.312  13.786 -20.110  0.00  0.00    -0.061 A 
ATOM      2  C   UNL     1     -26.082  13.048 -21.008  0.00  0.00    -0.060 A 
ATOM      3  C   UNL     1     -26.755  13.673 -22.064  0.00  0.00    -0.038 A 
ATOM      4  C   UNL     1     -26.630  15.062 -22.179  0.00  0.00    +0.046 A 
ATOM      5  C   UNL     1     -25.868  15.826 -21.294  0.00  0.00    -0.000 A 
ATOM      6  C   UNL     1     -25.195  15.174 -20.243  0.00  0.00    -0.053 A 
ATOM      7  N   UNL     1     -27.174  15.931 -23.098  0.00  0.00    -0.361 N 
ATOM      8  C   UNL     1     -26.790  17.216 -22.821  0.00  0.00    +0.003 A 
ATOM      9  C   UNL     1     -25.977  17.182 -21.712  0.00  0.00    -0.037 A 
ATOM     10  H   UNL     1     -27.755  15.666 -23.847  0.00  0.00    +0.000 HD
ENDROOT
TORSDOF 0
ENDMDL
