MODEL 1
REMARK VINA RESULT:    -7.625      0.000      0.000
REMARK INTER + INTRA:          -8.950
REMARK INTER:                  -8.516
REMARK INTRA:                  -0.434
REMARK UNBOUND:                -0.434
REMARK  Name = 0a.sdf
REMARK  2 active torsions:
REMARK  status: ('A' for Active; 'I' for Inactive)
REMARK    1  A    between atoms: N_7  and  C_10
REMARK    2  A    between atoms: C_10  and  C_11
REMARK                            x       y       z     vdW  Elec       q    Type
REMARK                         _______ _______ _______ _____ _____    ______ ____
ROOT
ATOM      1  C   UNL     1     -24.961  22.637 -21.395  0.00  0.00    -0.061 A 
ATOM      2  C   UNL     1     -24.490  21.960 -22.514  0.00  0.00    -0.060 A 
ATOM      3  C   UNL     1     -25.213  20.893 -23.065  0.00  0.00    -0.038 A 
ATOM      4  C   UNL     1     -26.429  20.525 -22.466  0.00  0.00    +0.049 A 
ATOM      5  C   UNL     1     -26.931  21.224 -21.360  0.00  0.00    -0.000 A 
ATOM      6  C   UNL     1     -26.184  22.289 -20.819  0.00  0.00    -0.053 A 
ATOM      7  N   UNL     1     -27.325  19.501 -22.729  0.00  0.00    -0.342 N 
ATOM      8  C   UNL     1     -28.407  19.598 -21.885  0.00  0.00    +0.006 A 
ATOM      9  C   UNL     1     -28.186  20.650 -21.026  0.00  0.00    -0.036 A 
ENDROOT
BRANCH   7  10
ATOM     10  C   UNL     1     -27.124  18.378 -23.645  0.00  0.00    +0.048 C 
BRANCH  10  11
ATOM     11  C   UNL     1     -26.865  17.088 -22.909  0.00  0.00    -0.028 A 
ATOM     12  C   UNL     1     -25.996  17.063 -21.809  0.00  0.00    -0.056 A 
ATOM     13  C   UNL     1     -25.641  15.854 -21.211  0.00  0.00    -0.047 A 
ATOM     14  C   UNL     1     -26.168  14.661 -21.698  0.00  0.00    +0.018 A 
ATOM     15  C   UNL     1     -27.090  14.671 -22.741  0.00  0.00    -0.047 A 
ATOM     16  C   UNL     1     -27.442  15.883 -23.343  0.00  0.00    -0.056 A 
ATOM     17 BR   UNL     1     -25.589  13.016 -20.971  0.00  0.00    -0.050 Br
ENDBRANCH  10  11
ENDBRANCH   7  10
TORSDOF 2
ENDMDL
