MODEL 1
REMARK VINA RESULT:    -7.846      0.000      0.000
REMARK INTER + INTRA:          -9.314
REMARK INTER:                  -8.763
REMARK INTRA:                  -0.550
REMARK UNBOUND:                -0.550
REMARK  Name = 0c.sdf
REMARK  2 active torsions:
REMARK  status: ('A' for Active; 'I' for Inactive)
REMARK    1  A    between atoms: N_7  and  C_10
REMARK    2  A    between atoms: C_10  and  C_11
REMARK                            x       y       z     vdW  Elec       q    Type
REMARK                         _______ _______ _______ _____ _____    ______ ____
ROOT
ATOM      1  C   UNL     1     -24.833  13.028 -21.168  0.00  0.00    -0.061 A 
ATOM      2  C   UNL     1     -25.187  13.961 -20.200  0.00  0.00    -0.060 A 
ATOM      3  C   UNL     1     -26.033  15.033 -20.506  0.00  0.00    -0.038 A 
ATOM      4  C   UNL     1     -26.526  15.139 -21.817  0.00  0.00    +0.049 A 
ATOM      5  C   UNL     1     -26.202  14.193 -22.796  0.00  0.00    -0.000 A 
ATOM      6  C   UNL     1     -25.343  13.129 -22.468  0.00  0.00    -0.053 A 
ATOM      7  N   UNL     1     -27.344  16.078 -22.423  0.00  0.00    -0.342 N 
ATOM      8  C   UNL     1     -27.579  15.722 -23.729  0.00  0.00    +0.006 A 
ATOM      9  C   UNL     1     -26.883  14.564 -23.986  0.00  0.00    -0.036 A 
ENDROOT
BRANCH   7  10
ATOM     10  C   UNL     1     -27.833  17.313 -21.817  0.00  0.00    +0.048 C 
BRANCH  10  11
ATOM     11  C   UNL     1     -26.909  18.472 -22.098  0.00  0.00    -0.028 A 
ATOM     12  C   UNL     1     -25.827  18.743 -21.248  0.00  0.00    -0.055 A 
ATOM     13  C   UNL     1     -25.044  19.882 -21.437  0.00  0.00    -0.043 A 
ATOM     14  C   UNL     1     -25.329  20.751 -22.488  0.00  0.00    +0.041 A 
ATOM     15  C   UNL     1     -26.367  20.471 -23.371  0.00  0.00    -0.043 A 
ATOM     16  C   UNL     1     -27.153  19.332 -23.180  0.00  0.00    -0.055 A 
ATOM     17 CL   UNL     1     -24.407  22.191 -22.679  0.00  0.00    -0.084 Cl
ENDBRANCH  10  11
ENDBRANCH   7  10
TORSDOF 2
ENDMDL
