MODEL 1
REMARK VINA RESULT:   -10.292      0.000      0.000
REMARK INTER + INTRA:         -13.925
REMARK INTER:                 -13.903
REMARK INTRA:                  -0.022
REMARK UNBOUND:                -0.022
REMARK  Name = 10a.sdf
REMARK  7 active torsions:
REMARK  status: ('A' for Active; 'I' for Inactive)
REMARK    1  A    between atoms: N_7  and  C_22
REMARK    2  A    between atoms: C_9  and  C_10
REMARK    3  A    between atoms: C_11  and  C_12
REMARK    4  A    between atoms: C_12  and  C_13
REMARK    5  A    between atoms: C_17  and  O_20
REMARK    6  A    between atoms: O_20  and  C_21
REMARK    7  A    between atoms: C_22  and  C_23
REMARK                            x       y       z     vdW  Elec       q    Type
REMARK                         _______ _______ _______ _____ _____    ______ ____
ROOT
ATOM      1  C   UNL     1     -25.400  14.748 -20.229  0.00  0.00    -0.061 A 
ATOM      2  C   UNL     1     -25.488  13.400 -20.552  0.00  0.00    -0.060 A 
ATOM      3  C   UNL     1     -26.161  12.977 -21.703  0.00  0.00    -0.038 A 
ATOM      4  C   UNL     1     -26.742  13.951 -22.532  0.00  0.00    +0.050 A 
ATOM      5  C   UNL     1     -26.632  15.318 -22.248  0.00  0.00    +0.007 A 
ATOM      6  C   UNL     1     -25.961  15.713 -21.070  0.00  0.00    -0.052 A 
ATOM      7  N   UNL     1     -27.490  13.839 -23.691  0.00  0.00    -0.342 N 
ATOM      8  C   UNL     1     -27.788  15.091 -24.177  0.00  0.00    +0.013 A 
ATOM      9  C   UNL     1     -27.272  16.029 -23.309  0.00  0.00    +0.000 A 
ENDROOT
BRANCH   9  10
ATOM     10  C   UNL     1     -27.341  17.452 -23.453  0.00  0.00    -0.049 C 
ATOM     11  C   UNL     1     -28.231  18.250 -22.848  0.00  0.00    -0.014 C 
BRANCH  11  12
ATOM     12  C   UNL     1     -28.260  19.713 -23.131  0.00  0.00    +0.186 C 
ATOM     13  O   UNL     1     -29.116  20.242 -23.817  0.00  0.00    -0.287 OA
BRANCH  12  14
ATOM     14  C   UNL     1     -27.139  20.512 -22.540  0.00  0.00    +0.022 A 
ATOM     15  C   UNL     1     -27.308  21.088 -21.281  0.00  0.00    -0.047 A 
ATOM     16  C   UNL     1     -26.297  21.893 -20.746  0.00  0.00    -0.019 A 
ATOM     17  C   UNL     1     -25.110  22.111 -21.447  0.00  0.00    +0.120 A 
ATOM     18  C   UNL     1     -24.923  21.501 -22.691  0.00  0.00    -0.019 A 
ATOM     19  C   UNL     1     -25.934  20.703 -23.233  0.00  0.00    -0.047 A 
BRANCH  17  20
ATOM     20  O   UNL     1     -24.228  22.964 -20.850  0.00  0.00    -0.495 OA
ATOM     21  C   UNL     1     -24.244  24.316 -21.293  0.00  0.00    +0.079 C 
ENDBRANCH  17  20
ENDBRANCH  12  14
ENDBRANCH  11  12
ENDBRANCH   9  10
BRANCH   7  22
ATOM     22  C   UNL     1     -28.000  12.598 -24.272  0.00  0.00    +0.048 C 
BRANCH  22  23
ATOM     23  C   UNL     1     -29.354  12.789 -24.909  0.00  0.00    -0.028 A 
ATOM     24  C   UNL     1     -29.902  11.793 -25.730  0.00  0.00    -0.056 A 
ATOM     25  C   UNL     1     -31.105  12.009 -26.405  0.00  0.00    -0.047 A 
ATOM     26  C   UNL     1     -31.775  13.220 -26.252  0.00  0.00    +0.018 A 
ATOM     27  C   UNL     1     -31.273  14.201 -25.400  0.00  0.00    -0.047 A 
ATOM     28  C   UNL     1     -30.068  13.986 -24.729  0.00  0.00    -0.056 A 
ATOM     29 BR   UNL     1     -33.358  13.546 -27.233  0.00  0.00    -0.050 Br
ENDBRANCH  22  23
ENDBRANCH   7  22
TORSDOF 6
ENDMDL
