MODEL 1
REMARK VINA RESULT:    -7.770      0.000      0.000
REMARK INTER + INTRA:         -10.863
REMARK INTER:                 -10.042
REMARK INTRA:                  -0.821
REMARK UNBOUND:                -0.821
REMARK  Name = 15.sdf
REMARK  6 active torsions:
REMARK  status: ('A' for Active; 'I' for Inactive)
REMARK    1  A    between atoms: C_9  and  C_10
REMARK    2  A    between atoms: C_10  and  O_11
REMARK    3  A    between atoms: O_11  and  C_12
REMARK    4  A    between atoms: C_12  and  C_13
REMARK    5  A    between atoms: C_13  and  C_15
REMARK    6  A    between atoms: C_16  and  C_17
REMARK                            x       y       z     vdW  Elec       q    Type
REMARK                         _______ _______ _______ _____ _____    ______ ____
ROOT
ATOM      1  C   UNL     1     -25.286  14.106 -20.234  0.00  0.00    -0.061 A 
ATOM      2  C   UNL     1     -25.386  13.001 -21.075  0.00  0.00    -0.060 A 
ATOM      3  C   UNL     1     -25.981  13.108 -22.336  0.00  0.00    -0.038 A 
ATOM      4  C   UNL     1     -26.470  14.362 -22.718  0.00  0.00    +0.047 A 
ATOM      5  C   UNL     1     -26.386  15.488 -21.898  0.00  0.00    +0.006 A 
ATOM      6  C   UNL     1     -25.780  15.354 -20.632  0.00  0.00    -0.052 A 
ATOM      7  N   UNL     1     -27.093  14.754 -23.879  0.00  0.00    -0.360 N 
ATOM      8  C   UNL     1     -27.405  16.084 -23.823  0.00  0.00    +0.009 A 
ATOM      9  C   UNL     1     -26.990  16.581 -22.601  0.00  0.00    +0.015 A 
ATOM     10  H   UNL     1     -27.288  14.162 -24.642  0.00  0.00    +0.000 HD
ENDROOT
BRANCH   9  11
ATOM     11  C   UNL     1     -27.141  17.985 -22.115  0.00  0.00    +0.120 C 
BRANCH  11  12
ATOM     12  O   UNL     1     -26.474  18.935 -22.963  0.00  0.00    -0.456 OA
BRANCH  12  13
ATOM     13  C   UNL     1     -26.659  20.238 -22.630  0.00  0.00    +0.339 C 
ATOM     14  O   UNL     1     -27.701  20.866 -22.774  0.00  0.00    -0.245 OA
BRANCH  13  15
ATOM     15  C   UNL     1     -25.399  20.859 -22.080  0.00  0.00    +0.052 C 
ATOM     16  C   UNL     1     -24.639  21.673 -22.831  0.00  0.00    -0.085 C 
BRANCH  15  17
ATOM     17  C   UNL     1     -25.126  20.668 -20.662  0.00  0.00    -0.053 C 
ATOM     18  C   UNL     1     -24.435  19.693 -20.049  0.00  0.00    -0.086 C 
ATOM     19  C   UNL     1     -23.765  18.496 -20.639  0.00  0.00    -0.047 C 
ENDBRANCH  15  17
ENDBRANCH  13  15
ENDBRANCH  12  13
ENDBRANCH  11  12
ENDBRANCH   9  11
TORSDOF 5
ENDMDL
