MODEL 1
REMARK VINA RESULT:    -7.864      0.000      0.000
REMARK INTER + INTRA:         -10.702
REMARK INTER:                  -9.703
REMARK INTRA:                  -0.999
REMARK UNBOUND:                -0.999
REMARK  Name = 16.sdf
REMARK  4 active torsions:
REMARK  status: ('A' for Active; 'I' for Inactive)
REMARK    1  A    between atoms: C_9  and  C_10
REMARK    2  A    between atoms: C_10  and  O_11
REMARK    3  A    between atoms: O_11  and  C_12
REMARK    4  A    between atoms: C_12  and  C_13
REMARK                            x       y       z     vdW  Elec       q    Type
REMARK                         _______ _______ _______ _____ _____    ______ ____
ROOT
ATOM      1  C   UNL     1     -25.123  16.019 -20.679  0.00  0.00    -0.061 A 
ATOM      2  C   UNL     1     -24.904  14.719 -20.229  0.00  0.00    -0.060 A 
ATOM      3  C   UNL     1     -25.631  13.647 -20.753  0.00  0.00    -0.038 A 
ATOM      4  C   UNL     1     -26.582  13.927 -21.741  0.00  0.00    +0.047 A 
ATOM      5  C   UNL     1     -26.824  15.217 -22.219  0.00  0.00    +0.005 A 
ATOM      6  C   UNL     1     -26.076  16.281 -21.670  0.00  0.00    -0.052 A 
ATOM      7  N   UNL     1     -27.426  13.080 -22.418  0.00  0.00    -0.360 N 
ATOM      8  C   UNL     1     -28.195  13.785 -23.301  0.00  0.00    +0.008 A 
ATOM      9  C   UNL     1     -27.846  15.121 -23.222  0.00  0.00    +0.003 A 
ATOM     10  H   UNL     1     -27.471  12.105 -22.286  0.00  0.00    +0.000 HD
ENDROOT
BRANCH   9  11
ATOM     11  C   UNL     1     -28.435  16.241 -24.020  0.00  0.00    +0.075 C 
BRANCH  11  12
ATOM     12  O   UNL     1     -29.308  17.042 -23.218  0.00  0.00    -0.371 OA
BRANCH  12  13
ATOM     13  C   UNL     1     -29.324  18.404 -23.636  0.00  0.00    +0.073 C 
BRANCH  13  14
ATOM     14  C   UNL     1     -28.247  19.182 -22.914  0.00  0.00    -0.022 A 
ATOM     15  C   UNL     1     -27.182  19.743 -23.635  0.00  0.00    -0.055 A 
ATOM     16  C   UNL     1     -26.193  20.485 -22.982  0.00  0.00    -0.043 A 
ATOM     17  C   UNL     1     -26.269  20.681 -21.605  0.00  0.00    +0.041 A 
ATOM     18  C   UNL     1     -27.328  20.149 -20.876  0.00  0.00    -0.043 A 
ATOM     19  C   UNL     1     -28.316  19.408 -21.530  0.00  0.00    -0.055 A 
ATOM     20 CL   UNL     1     -25.048  21.590 -20.802  0.00  0.00    -0.084 Cl
ENDBRANCH  13  14
ENDBRANCH  12  13
ENDBRANCH  11  12
ENDBRANCH   9  11
TORSDOF 4
ENDMDL
