MODEL 1
REMARK VINA RESULT:    -7.597      0.000      0.000
REMARK INTER + INTRA:          -8.662
REMARK INTER:                  -8.485
REMARK INTRA:                  -0.177
REMARK UNBOUND:                -0.177
REMARK  Name = 17.sdf
REMARK  2 active torsions:
REMARK  status: ('A' for Active; 'I' for Inactive)
REMARK    1  A    between atoms: C_9  and  C_10
REMARK    2  A    between atoms: N_11  and  N_12
REMARK                            x       y       z     vdW  Elec       q    Type
REMARK                         _______ _______ _______ _____ _____    ______ ____
ROOT
ATOM      1  C   UNL     1     -25.290  14.018 -20.099  0.00  0.00    -0.061 A 
ATOM      2  C   UNL     1     -25.958  13.051 -20.846  0.00  0.00    -0.060 A 
ATOM      3  C   UNL     1     -26.743  13.406 -21.946  0.00  0.00    -0.038 A 
ATOM      4  C   UNL     1     -26.837  14.766 -22.262  0.00  0.00    +0.047 A 
ATOM      5  C   UNL     1     -26.182  15.761 -21.532  0.00  0.00    +0.008 A 
ATOM      6  C   UNL     1     -25.390  15.373 -20.432  0.00  0.00    -0.052 A 
ATOM      7  N   UNL     1     -27.533  15.389 -23.269  0.00  0.00    -0.360 N 
ATOM      8  C   UNL     1     -27.351  16.740 -23.197  0.00  0.00    +0.011 A 
ATOM      9  C   UNL     1     -26.512  17.016 -22.132  0.00  0.00    +0.020 A 
ATOM     10  H   UNL     1     -28.084  14.929 -23.944  0.00  0.00    +0.000 HD
ENDROOT
BRANCH   9  11
ATOM     11  C   UNL     1     -26.083  18.340 -21.735  0.00  0.00    +0.055 C 
ATOM     12  N   UNL     1     -26.811  19.335 -22.118  0.00  0.00    -0.186 NA
BRANCH  12  13
ATOM     13  N   UNL     1     -26.408  20.583 -21.747  0.00  0.00    -0.191 N 
ATOM     14  C   UNL     1     -27.205  21.355 -20.934  0.00  0.00    +0.317 C 
ATOM     15  O   UNL     1     -26.897  22.480 -20.559  0.00  0.00    -0.251 OA
ATOM     16  N   UNL     1     -28.374  20.763 -20.583  0.00  0.00    -0.312 N 
ATOM     17  H   UNL     1     -25.544  20.932 -22.062  0.00  0.00    +0.000 HD
ATOM     18  H   UNL     1     -28.584  19.857 -20.907  0.00  0.00    +0.000 HD
ATOM     19  H   UNL     1     -29.012  21.239 -20.004  0.00  0.00    +0.000 HD
ENDBRANCH  12  13
ENDBRANCH   9  11
TORSDOF 2
ENDMDL
