MODEL 1
REMARK VINA RESULT:    -9.136      0.000      0.000
REMARK INTER + INTRA:         -11.964
REMARK INTER:                 -11.272
REMARK INTRA:                  -0.692
REMARK UNBOUND:                -0.692
REMARK  Name = 17c.sdf
REMARK  4 active torsions:
REMARK  status: ('A' for Active; 'I' for Inactive)
REMARK    1  A    between atoms: N_7  and  C_16
REMARK    2  A    between atoms: C_9  and  C_10
REMARK    3  A    between atoms: N_11  and  N_12
REMARK    4  A    between atoms: C_16  and  C_17
REMARK                            x       y       z     vdW  Elec       q    Type
REMARK                         _______ _______ _______ _____ _____    ______ ____
ROOT
ATOM      1  C   UNL     1     -25.433  14.021 -20.578  0.00  0.00    -0.061 A 
ATOM      2  C   UNL     1     -24.928  15.313 -20.494  0.00  0.00    -0.060 A 
ATOM      3  C   UNL     1     -25.466  16.352 -21.267  0.00  0.00    -0.038 A 
ATOM      4  C   UNL     1     -26.511  16.054 -22.161  0.00  0.00    +0.050 A 
ATOM      5  C   UNL     1     -27.070  14.768 -22.217  0.00  0.00    +0.009 A 
ATOM      6  C   UNL     1     -26.517  13.745 -21.413  0.00  0.00    -0.052 A 
ATOM      7  N   UNL     1     -27.168  16.824 -23.110  0.00  0.00    -0.342 N 
ATOM      8  C   UNL     1     -28.174  16.079 -23.680  0.00  0.00    +0.015 A 
ATOM      9  C   UNL     1     -28.156  14.807 -23.143  0.00  0.00    +0.020 A 
ENDROOT
BRANCH   9  10
ATOM     10  C   UNL     1     -29.071  13.733 -23.474  0.00  0.00    +0.055 C 
ATOM     11  N   UNL     1     -28.874  13.052 -24.557  0.00  0.00    -0.186 NA
BRANCH  11  12
ATOM     12  N   UNL     1     -29.800  12.081 -24.824  0.00  0.00    -0.191 N 
ATOM     13  C   UNL     1     -30.674  12.186 -25.885  0.00  0.00    +0.317 C 
ATOM     14  O   UNL     1     -31.485  11.326 -26.162  0.00  0.00    -0.251 OA
ATOM     15  N   UNL     1     -30.550  13.341 -26.575  0.00  0.00    -0.312 N 
ATOM     16  H   UNL     1     -29.841  11.285 -24.245  0.00  0.00    +0.000 HD
ATOM     17  H   UNL     1     -29.874  14.005 -26.308  0.00  0.00    +0.000 HD
ATOM     18  H   UNL     1     -31.135  13.518 -27.347  0.00  0.00    +0.000 HD
ENDBRANCH  11  12
ENDBRANCH   9  10
BRANCH   7  19
ATOM     19  C   UNL     1     -26.800  18.161 -23.589  0.00  0.00    +0.048 C 
BRANCH  19  20
ATOM     20  C   UNL     1     -27.162  19.240 -22.598  0.00  0.00    -0.028 A 
ATOM     21  C   UNL     1     -28.463  19.763 -22.571  0.00  0.00    -0.055 A 
ATOM     22  C   UNL     1     -28.753  20.904 -21.820  0.00  0.00    -0.043 A 
ATOM     23  C   UNL     1     -27.752  21.503 -21.059  0.00  0.00    +0.041 A 
ATOM     24  C   UNL     1     -26.488  20.927 -20.981  0.00  0.00    -0.043 A 
ATOM     25  C   UNL     1     -26.192  19.796 -21.747  0.00  0.00    -0.055 A 
ATOM     26 CL   UNL     1     -28.067  22.993 -20.260  0.00  0.00    -0.084 Cl
ENDBRANCH  19  20
ENDBRANCH   7  19
TORSDOF 4
ENDMDL
