MODEL 1
REMARK VINA RESULT:    -9.698      0.000      0.000
REMARK INTER + INTRA:         -11.460
REMARK INTER:                 -11.399
REMARK INTRA:                  -0.060
REMARK UNBOUND:                -0.060
REMARK  Name = 17d.sdf
REMARK  3 active torsions:
REMARK  status: ('A' for Active; 'I' for Inactive)
REMARK    1  A    between atoms: C_9  and  C_10
REMARK    2  A    between atoms: N_11  and  N_12
REMARK    3  A    between atoms: C_16  and  C_17
REMARK                            x       y       z     vdW  Elec       q    Type
REMARK                         _______ _______ _______ _____ _____    ______ ____
ROOT
ATOM      1  C   UNL     1     -26.040  13.013 -20.840  0.00  0.00    -0.061 A 
ATOM      2  C   UNL     1     -25.149  13.728 -20.050  0.00  0.00    -0.060 A 
ATOM      3  C   UNL     1     -24.950  15.096 -20.248  0.00  0.00    -0.037 A 
ATOM      4  C   UNL     1     -25.672  15.740 -21.271  0.00  0.00    +0.057 A 
ATOM      5  C   UNL     1     -26.582  15.038 -22.076  0.00  0.00    +0.009 A 
ATOM      6  C   UNL     1     -26.759  13.655 -21.853  0.00  0.00    -0.052 A 
ATOM      7  N   UNL     1     -25.710  17.082 -21.649  0.00  0.00    -0.282 N 
ATOM      8  C   UNL     1     -26.580  17.190 -22.716  0.00  0.00    +0.023 A 
ATOM      9  C   UNL     1     -27.154  15.968 -22.990  0.00  0.00    +0.020 A 
ATOM     10  C   UNL     1     -25.012  18.167 -21.064  0.00  0.00    +0.263 C 
ATOM     11  O   UNL     1     -23.982  17.928 -20.439  0.00  0.00    -0.267 OA
ENDROOT
BRANCH  10  12
ATOM     12  C   UNL     1     -25.474  19.575 -21.174  0.00  0.00    +0.040 A 
ATOM     13  C   UNL     1     -24.587  20.578 -21.592  0.00  0.00    -0.049 A 
ATOM     14  C   UNL     1     -25.008  21.904 -21.652  0.00  0.00    -0.061 A 
ATOM     15  C   UNL     1     -26.325  22.227 -21.325  0.00  0.00    -0.062 A 
ATOM     16  C   UNL     1     -27.223  21.225 -20.955  0.00  0.00    -0.061 A 
ATOM     17  C   UNL     1     -26.803  19.895 -20.885  0.00  0.00    -0.049 A 
ENDBRANCH  10  12
BRANCH   9  18
ATOM     18  C   UNL     1     -28.137  15.741 -24.029  0.00  0.00    +0.055 C 
ATOM     19  N   UNL     1     -28.911  14.711 -23.909  0.00  0.00    -0.186 NA
BRANCH  19  20
ATOM     20  N   UNL     1     -29.827  14.527 -24.906  0.00  0.00    -0.191 N 
ATOM     21  C   UNL     1     -30.117  13.270 -25.382  0.00  0.00    +0.317 C 
ATOM     22  O   UNL     1     -30.971  13.060 -26.232  0.00  0.00    -0.251 OA
ATOM     23  N   UNL     1     -29.361  12.282 -24.838  0.00  0.00    -0.312 N 
ATOM     24  H   UNL     1     -30.286  15.308 -25.290  0.00  0.00    +0.000 HD
ATOM     25  H   UNL     1     -28.685  12.498 -24.156  0.00  0.00    +0.000 HD
ATOM     26  H   UNL     1     -29.490  11.350 -25.125  0.00  0.00    +0.000 HD
ENDBRANCH  19  20
ENDBRANCH   9  18
TORSDOF 3
ENDMDL
