MODEL 1
REMARK VINA RESULT:    -7.635      0.000      0.000
REMARK INTER + INTRA:          -9.573
REMARK INTER:                  -8.974
REMARK INTRA:                  -0.599
REMARK UNBOUND:                -0.599
REMARK  Name = 1b.sdf
REMARK  3 active torsions:
REMARK  status: ('A' for Active; 'I' for Inactive)
REMARK    1  A    between atoms: N_7  and  C_12
REMARK    2  A    between atoms: C_9  and  C_10
REMARK    3  A    between atoms: C_12  and  C_13
REMARK                            x       y       z     vdW  Elec       q    Type
REMARK                         _______ _______ _______ _____ _____    ______ ____
ROOT
ATOM      1  C   UNL     1     -25.707  13.922 -20.700  0.00  0.00    -0.061 A 
ATOM      2  C   UNL     1     -25.224  15.220 -20.584  0.00  0.00    -0.060 A 
ATOM      3  C   UNL     1     -25.688  16.238 -21.423  0.00  0.00    -0.038 A 
ATOM      4  C   UNL     1     -26.661  15.919 -22.386  0.00  0.00    +0.050 A 
ATOM      5  C   UNL     1     -27.192  14.626 -22.491  0.00  0.00    +0.010 A 
ATOM      6  C   UNL     1     -26.695  13.617 -21.641  0.00  0.00    -0.052 A 
ATOM      7  N   UNL     1     -27.264  16.683 -23.370  0.00  0.00    -0.342 N 
ATOM      8  C   UNL     1     -28.198  15.931 -24.035  0.00  0.00    +0.016 A 
ATOM      9  C   UNL     1     -28.183  14.650 -23.520  0.00  0.00    +0.039 A 
ENDROOT
BRANCH   9  10
ATOM     10  C   UNL     1     -29.021  13.559 -23.972  0.00  0.00    +0.152 C 
ATOM     11  O   UNL     1     -29.841  12.984 -23.260  0.00  0.00    -0.296 OA
ENDBRANCH   9  10
BRANCH   7  12
ATOM     12  C   UNL     1     -26.891  18.041 -23.762  0.00  0.00    +0.048 C 
BRANCH  12  13
ATOM     13  C   UNL     1     -27.600  19.083 -22.941  0.00  0.00    -0.025 A 
ATOM     14  C   UNL     1     -28.879  19.524 -23.294  0.00  0.00    -0.039 A 
ATOM     15  C   UNL     1     -29.476  20.518 -22.535  0.00  0.00    +0.028 A 
ATOM     16  N   UNL     1     -28.902  21.083 -21.453  0.00  0.00    -0.263 NA
ATOM     17  C   UNL     1     -27.673  20.637 -21.118  0.00  0.00    +0.028 A 
ATOM     18  C   UNL     1     -26.992  19.652 -21.817  0.00  0.00    -0.039 A 
ENDBRANCH  12  13
ENDBRANCH   7  12
TORSDOF 3
ENDMDL
