MODEL 1
REMARK VINA RESULT:    -7.869      0.000      0.000
REMARK INTER + INTRA:          -9.789
REMARK INTER:                  -9.250
REMARK INTRA:                  -0.539
REMARK UNBOUND:                -0.539
REMARK  Name = 1c.sdf
REMARK  3 active torsions:
REMARK  status: ('A' for Active; 'I' for Inactive)
REMARK    1  A    between atoms: N_7  and  C_12
REMARK    2  A    between atoms: C_9  and  C_10
REMARK    3  A    between atoms: C_12  and  C_13
REMARK                            x       y       z     vdW  Elec       q    Type
REMARK                         _______ _______ _______ _____ _____    ______ ____
ROOT
ATOM      1  C   UNL     1     -25.659  13.632 -20.550  0.00  0.00    -0.061 A 
ATOM      2  C   UNL     1     -25.151  14.924 -20.457  0.00  0.00    -0.060 A 
ATOM      3  C   UNL     1     -25.659  15.965 -21.249  0.00  0.00    -0.038 A 
ATOM      4  C   UNL     1     -26.678  15.674 -22.172  0.00  0.00    +0.050 A 
ATOM      5  C   UNL     1     -27.246  14.390 -22.233  0.00  0.00    +0.010 A 
ATOM      6  C   UNL     1     -26.722  13.364 -21.415  0.00  0.00    -0.052 A 
ATOM      7  N   UNL     1     -27.306  16.438 -23.148  0.00  0.00    -0.342 N 
ATOM      8  C   UNL     1     -28.309  15.697 -23.731  0.00  0.00    +0.016 A 
ATOM      9  C   UNL     1     -28.301  14.432 -23.183  0.00  0.00    +0.039 A 
ENDROOT
BRANCH   9  10
ATOM     10  C   UNL     1     -29.210  13.357 -23.544  0.00  0.00    +0.152 C 
ATOM     11  O   UNL     1     -29.220  12.814 -24.641  0.00  0.00    -0.296 OA
ENDBRANCH   9  10
BRANCH   7  12
ATOM     12  C   UNL     1     -26.911  17.758 -23.652  0.00  0.00    +0.048 C 
BRANCH  12  13
ATOM     13  C   UNL     1     -27.279  18.868 -22.698  0.00  0.00    -0.028 A 
ATOM     14  C   UNL     1     -28.558  19.437 -22.745  0.00  0.00    -0.055 A 
ATOM     15  C   UNL     1     -28.843  20.600 -22.028  0.00  0.00    -0.043 A 
ATOM     16  C   UNL     1     -27.861  21.178 -21.228  0.00  0.00    +0.041 A 
ATOM     17  C   UNL     1     -26.622  20.560 -21.078  0.00  0.00    -0.043 A 
ATOM     18  C   UNL     1     -26.332  19.404 -21.809  0.00  0.00    -0.055 A 
ATOM     19 CL   UNL     1     -28.160  22.694 -20.472  0.00  0.00    -0.084 Cl
ENDBRANCH  12  13
ENDBRANCH   7  12
TORSDOF 3
ENDMDL
