MODEL 1
REMARK VINA RESULT:    -9.695      0.000      0.000
REMARK INTER + INTRA:         -13.251
REMARK INTER:                 -13.096
REMARK INTRA:                  -0.155
REMARK UNBOUND:                -0.155
REMARK  Name = 22a.sdf
REMARK  7 active torsions:
REMARK  status: ('A' for Active; 'I' for Inactive)
REMARK    1  A    between atoms: N_7  and  C_12
REMARK    2  A    between atoms: C_9  and  C_10
REMARK    3  A    between atoms: N_11  and  N_19
REMARK    4  A    between atoms: C_12  and  C_13
REMARK    5  A    between atoms: C_20  and  C_22
REMARK    6  A    between atoms: C_25  and  O_29
REMARK    7  A    between atoms: O_29  and  C_30
REMARK                            x       y       z     vdW  Elec       q    Type
REMARK                         _______ _______ _______ _____ _____    ______ ____
ROOT
ATOM      1  C   UNL     1     -26.060  13.015 -20.771  0.00  0.00    -0.061 A 
ATOM      2  C   UNL     1     -25.264  13.825 -19.970  0.00  0.00    -0.060 A 
ATOM      3  C   UNL     1     -25.112  15.186 -20.252  0.00  0.00    -0.038 A 
ATOM      4  C   UNL     1     -25.792  15.721 -21.359  0.00  0.00    +0.050 A 
ATOM      5  C   UNL     1     -26.638  14.933 -22.153  0.00  0.00    +0.009 A 
ATOM      6  C   UNL     1     -26.756  13.556 -21.856  0.00  0.00    -0.052 A 
ATOM      7  N   UNL     1     -25.800  16.992 -21.904  0.00  0.00    -0.342 N 
ATOM      8  C   UNL     1     -26.679  17.039 -22.958  0.00  0.00    +0.015 A 
ATOM      9  C   UNL     1     -27.227  15.784 -23.140  0.00  0.00    +0.020 A 
ENDROOT
BRANCH   9  10
ATOM     10  C   UNL     1     -28.208  15.421 -24.138  0.00  0.00    +0.055 C 
ATOM     11  N   UNL     1     -29.254  14.736 -23.795  0.00  0.00    -0.187 NA
BRANCH  11  12
ATOM     12  N   UNL     1     -30.129  14.425 -24.801  0.00  0.00    -0.203 N 
ATOM     13  C   UNL     1     -30.179  13.124 -25.278  0.00  0.00    +0.263 C 
ATOM     14  O   UNL     1     -29.503  12.190 -24.860  0.00  0.00    -0.268 OA
ATOM     15  H   UNL     1     -30.716  15.117 -25.182  0.00  0.00    +0.000 HD
BRANCH  13  16
ATOM     16  C   UNL     1     -31.178  12.862 -26.358  0.00  0.00    +0.039 A 
ATOM     17  C   UNL     1     -32.214  13.752 -26.658  0.00  0.00    -0.046 A 
ATOM     18  C   UNL     1     -33.126  13.439 -27.673  0.00  0.00    -0.019 A 
ATOM     19  C   UNL     1     -33.002  12.259 -28.411  0.00  0.00    +0.120 A 
ATOM     20  C   UNL     1     -31.957  11.381 -28.126  0.00  0.00    -0.019 A 
ATOM     21  C   UNL     1     -31.048  11.683 -27.105  0.00  0.00    -0.046 A 
BRANCH  19  22
ATOM     22  O   UNL     1     -33.983  12.050 -29.341  0.00  0.00    -0.495 OA
ATOM     23  C   UNL     1     -33.569  12.014 -30.701  0.00  0.00    +0.079 C 
ENDBRANCH  19  22
ENDBRANCH  13  16
ENDBRANCH  11  12
ENDBRANCH   9  10
BRANCH   7  24
ATOM     24  C   UNL     1     -24.938  18.107 -21.512  0.00  0.00    +0.048 C 
BRANCH  24  25
ATOM     25  C   UNL     1     -25.716  19.391 -21.372  0.00  0.00    -0.028 A 
ATOM     26  C   UNL     1     -25.050  20.619 -21.247  0.00  0.00    -0.056 A 
ATOM     27  C   UNL     1     -25.765  21.792 -20.997  0.00  0.00    -0.047 A 
ATOM     28  C   UNL     1     -27.152  21.746 -20.885  0.00  0.00    +0.018 A 
ATOM     29  C   UNL     1     -27.835  20.545 -21.064  0.00  0.00    -0.047 A 
ATOM     30  C   UNL     1     -27.119  19.371 -21.308  0.00  0.00    -0.056 A 
ATOM     31 BR   UNL     1     -28.109  23.316 -20.450  0.00  0.00    -0.050 Br
ENDBRANCH  24  25
ENDBRANCH   7  24
TORSDOF 6
ENDMDL
