MODEL 1
REMARK VINA RESULT:   -10.094      0.000      0.000
REMARK INTER + INTRA:         -13.796
REMARK INTER:                 -13.634
REMARK INTRA:                  -0.162
REMARK UNBOUND:                -0.162
REMARK  Name = 22c.sdf
REMARK  7 active torsions:
REMARK  status: ('A' for Active; 'I' for Inactive)
REMARK    1  A    between atoms: N_7  and  C_12
REMARK    2  A    between atoms: C_9  and  C_10
REMARK    3  A    between atoms: N_11  and  N_19
REMARK    4  A    between atoms: C_12  and  C_13
REMARK    5  A    between atoms: C_20  and  C_22
REMARK    6  A    between atoms: C_25  and  O_29
REMARK    7  A    between atoms: O_29  and  C_30
REMARK                            x       y       z     vdW  Elec       q    Type
REMARK                         _______ _______ _______ _____ _____    ______ ____
ROOT
ATOM      1  C   UNL     1     -26.073  13.034 -20.940  0.00  0.00    -0.061 A 
ATOM      2  C   UNL     1     -25.321  13.818 -20.079  0.00  0.00    -0.060 A 
ATOM      3  C   UNL     1     -25.221  15.206 -20.261  0.00  0.00    -0.038 A 
ATOM      4  C   UNL     1     -25.890  15.788 -21.352  0.00  0.00    +0.050 A 
ATOM      5  C   UNL     1     -26.707  15.020 -22.195  0.00  0.00    +0.009 A 
ATOM      6  C   UNL     1     -26.785  13.623 -21.988  0.00  0.00    -0.052 A 
ATOM      7  N   UNL     1     -25.917  17.085 -21.840  0.00  0.00    -0.342 N 
ATOM      8  C   UNL     1     -26.797  17.161 -22.892  0.00  0.00    +0.015 A 
ATOM      9  C   UNL     1     -27.326  15.907 -23.128  0.00  0.00    +0.020 A 
ENDROOT
BRANCH   9  10
ATOM     10  C   UNL     1     -28.310  15.571 -24.137  0.00  0.00    +0.055 C 
ATOM     11  N   UNL     1     -29.327  14.836 -23.829  0.00  0.00    -0.187 NA
BRANCH  11  12
ATOM     12  N   UNL     1     -30.203  14.556 -24.847  0.00  0.00    -0.203 N 
ATOM     13  C   UNL     1     -30.282  13.264 -25.341  0.00  0.00    +0.263 C 
ATOM     14  O   UNL     1     -29.628  12.305 -24.924  0.00  0.00    -0.268 OA
ATOM     15  H   UNL     1     -30.770  15.267 -25.223  0.00  0.00    +0.000 HD
BRANCH  13  16
ATOM     16  C   UNL     1     -31.272  13.031 -26.436  0.00  0.00    +0.039 A 
ATOM     17  C   UNL     1     -32.438  13.791 -26.577  0.00  0.00    -0.046 A 
ATOM     18  C   UNL     1     -33.336  13.504 -27.613  0.00  0.00    -0.019 A 
ATOM     19  C   UNL     1     -33.071  12.483 -28.532  0.00  0.00    +0.120 A 
ATOM     20  C   UNL     1     -31.898  11.743 -28.410  0.00  0.00    -0.019 A 
ATOM     21  C   UNL     1     -31.001  12.019 -27.370  0.00  0.00    -0.046 A 
BRANCH  19  22
ATOM     22  O   UNL     1     -34.053  12.265 -29.458  0.00  0.00    -0.495 OA
ATOM     23  C   UNL     1     -33.625  11.919 -30.771  0.00  0.00    +0.079 C 
ENDBRANCH  19  22
ENDBRANCH  13  16
ENDBRANCH  11  12
ENDBRANCH   9  10
BRANCH   7  24
ATOM     24  C   UNL     1     -25.052  18.200 -21.438  0.00  0.00    +0.048 C 
BRANCH  24  25
ATOM     25  C   UNL     1     -25.809  19.504 -21.358  0.00  0.00    -0.028 A 
ATOM     26  C   UNL     1     -25.118  20.724 -21.343  0.00  0.00    -0.055 A 
ATOM     27  C   UNL     1     -25.793  21.918 -21.081  0.00  0.00    -0.043 A 
ATOM     28  C   UNL     1     -27.168  21.903 -20.865  0.00  0.00    +0.041 A 
ATOM     29  C   UNL     1     -27.885  20.714 -20.979  0.00  0.00    -0.043 A 
ATOM     30  C   UNL     1     -27.208  19.517 -21.227  0.00  0.00    -0.055 A 
ATOM     31 CL   UNL     1     -27.975  23.351 -20.409  0.00  0.00    -0.084 Cl
ENDBRANCH  24  25
ENDBRANCH   7  24
TORSDOF 6
ENDMDL
