MODEL 1
REMARK VINA RESULT:   -10.198      0.000      0.000
REMARK INTER + INTRA:         -13.287
REMARK INTER:                 -13.477
REMARK INTRA:                   0.190
REMARK UNBOUND:                 0.190
REMARK  Name = 24a.sdf
REMARK  6 active torsions:
REMARK  status: ('A' for Active; 'I' for Inactive)
REMARK    1  A    between atoms: N_7  and  C_10
REMARK    2  A    between atoms: C_9  and  C_18
REMARK    3  A    between atoms: C_10  and  C_11
REMARK    4  A    between atoms: N_19  and  N_20
REMARK    5  A    between atoms: C_21  and  C_23
REMARK    6  A    between atoms: C_26  and  O_29
REMARK                            x       y       z     vdW  Elec       q    Type
REMARK                         _______ _______ _______ _____ _____    ______ ____
ROOT
ATOM      1  C   UNL     1     -26.067  13.016 -20.926  0.00  0.00    -0.061 A 
ATOM      2  C   UNL     1     -25.281  13.800 -20.096  0.00  0.00    -0.060 A 
ATOM      3  C   UNL     1     -25.198  15.191 -20.273  0.00  0.00    -0.038 A 
ATOM      4  C   UNL     1     -25.904  15.778 -21.350  0.00  0.00    +0.050 A 
ATOM      5  C   UNL     1     -26.752  15.005 -22.156  0.00  0.00    +0.009 A 
ATOM      6  C   UNL     1     -26.827  13.608 -21.936  0.00  0.00    -0.052 A 
ATOM      7  N   UNL     1     -25.935  17.072 -21.842  0.00  0.00    -0.342 N 
ATOM      8  C   UNL     1     -26.857  17.140 -22.865  0.00  0.00    +0.015 A 
ATOM      9  C   UNL     1     -27.403  15.889 -23.072  0.00  0.00    +0.020 A 
ENDROOT
BRANCH   9  10
ATOM     10  C   UNL     1     -28.434  15.553 -24.036  0.00  0.00    +0.055 C 
ATOM     11  N   UNL     1     -28.798  14.323 -24.198  0.00  0.00    -0.187 NA
BRANCH  11  12
ATOM     12  N   UNL     1     -29.759  14.099 -25.147  0.00  0.00    -0.203 N 
ATOM     13  C   UNL     1     -30.227  12.808 -25.361  0.00  0.00    +0.263 C 
ATOM     14  O   UNL     1     -29.846  11.812 -24.744  0.00  0.00    -0.268 OA
ATOM     15  H   UNL     1     -30.117  14.850 -25.674  0.00  0.00    +0.000 HD
BRANCH  13  16
ATOM     16  C   UNL     1     -31.292  12.647 -26.390  0.00  0.00    +0.039 A 
ATOM     17  C   UNL     1     -32.283  13.615 -26.607  0.00  0.00    -0.046 A 
ATOM     18  C   UNL     1     -33.278  13.403 -27.568  0.00  0.00    -0.019 A 
ATOM     19  C   UNL     1     -33.272  12.227 -28.316  0.00  0.00    +0.117 A 
ATOM     20  C   UNL     1     -32.274  11.277 -28.143  0.00  0.00    -0.019 A 
ATOM     21  C   UNL     1     -31.282  11.488 -27.182  0.00  0.00    -0.046 A 
BRANCH  19  22
ATOM     22  O   UNL     1     -34.239  11.968 -29.241  0.00  0.00    -0.507 OA
ATOM     23  H   UNL     1     -34.018  11.932 -30.151  0.00  0.00    +0.000 HD
ENDBRANCH  19  22
ENDBRANCH  13  16
ENDBRANCH  11  12
ENDBRANCH   9  10
BRANCH   7  24
ATOM     24  C   UNL     1     -25.059  18.194 -21.488  0.00  0.00    +0.048 C 
BRANCH  24  25
ATOM     25  C   UNL     1     -25.798  19.511 -21.416  0.00  0.00    -0.028 A 
ATOM     26  C   UNL     1     -25.090  20.721 -21.388  0.00  0.00    -0.056 A 
ATOM     27  C   UNL     1     -25.747  21.919 -21.100  0.00  0.00    -0.047 A 
ATOM     28  C   UNL     1     -27.122  21.919 -20.880  0.00  0.00    +0.018 A 
ATOM     29  C   UNL     1     -27.859  20.747 -21.029  0.00  0.00    -0.047 A 
ATOM     30  C   UNL     1     -27.198  19.545 -21.300  0.00  0.00    -0.056 A 
ATOM     31 BR   UNL     1     -27.976  23.499 -20.291  0.00  0.00    -0.050 Br
ENDBRANCH  24  25
ENDBRANCH   7  24
TORSDOF 6
ENDMDL
