MODEL 1
REMARK VINA RESULT:   -10.399      0.000      0.000
REMARK INTER + INTRA:         -13.582
REMARK INTER:                 -13.742
REMARK INTRA:                   0.161
REMARK UNBOUND:                 0.161
REMARK  Name = 24c.sdf
REMARK  6 active torsions:
REMARK  status: ('A' for Active; 'I' for Inactive)
REMARK    1  A    between atoms: N_7  and  C_10
REMARK    2  A    between atoms: C_9  and  C_18
REMARK    3  A    between atoms: C_10  and  C_11
REMARK    4  A    between atoms: N_19  and  N_20
REMARK    5  A    between atoms: C_21  and  C_23
REMARK    6  A    between atoms: C_26  and  O_29
REMARK                            x       y       z     vdW  Elec       q    Type
REMARK                         _______ _______ _______ _____ _____    ______ ____
ROOT
ATOM      1  C   UNL     1     -26.142  13.006 -20.815  0.00  0.00    -0.061 A 
ATOM      2  C   UNL     1     -25.302  13.795 -20.038  0.00  0.00    -0.060 A 
ATOM      3  C   UNL     1     -25.148  15.159 -20.306  0.00  0.00    -0.038 A 
ATOM      4  C   UNL     1     -25.870  15.716 -21.376  0.00  0.00    +0.050 A 
ATOM      5  C   UNL     1     -26.757  14.951 -22.141  0.00  0.00    +0.009 A 
ATOM      6  C   UNL     1     -26.879  13.572 -21.859  0.00  0.00    -0.052 A 
ATOM      7  N   UNL     1     -25.888  16.997 -21.902  0.00  0.00    -0.342 N 
ATOM      8  C   UNL     1     -26.811  17.070 -22.913  0.00  0.00    +0.015 A 
ATOM      9  C   UNL     1     -27.381  15.823 -23.087  0.00  0.00    +0.020 A 
ENDROOT
BRANCH   9  10
ATOM     10  C   UNL     1     -28.414  15.483 -24.047  0.00  0.00    +0.055 C 
ATOM     11  N   UNL     1     -28.740  14.246 -24.231  0.00  0.00    -0.187 NA
BRANCH  11  12
ATOM     12  N   UNL     1     -29.719  14.019 -25.158  0.00  0.00    -0.203 N 
ATOM     13  C   UNL     1     -30.193  12.730 -25.349  0.00  0.00    +0.263 C 
ATOM     14  O   UNL     1     -29.815  11.736 -24.740  0.00  0.00    -0.268 OA
ATOM     15  H   UNL     1     -30.083  14.765 -25.688  0.00  0.00    +0.000 HD
BRANCH  13  16
ATOM     16  C   UNL     1     -31.278  12.584 -26.365  0.00  0.00    +0.039 A 
ATOM     17  C   UNL     1     -32.151  13.636 -26.692  0.00  0.00    -0.046 A 
ATOM     18  C   UNL     1     -33.161  13.440 -27.642  0.00  0.00    -0.019 A 
ATOM     19  C   UNL     1     -33.285  12.204 -28.269  0.00  0.00    +0.117 A 
ATOM     20  C   UNL     1     -32.409  11.166 -27.977  0.00  0.00    -0.019 A 
ATOM     21  C   UNL     1     -31.403  11.356 -27.028  0.00  0.00    -0.046 A 
BRANCH  19  22
ATOM     22  O   UNL     1     -34.260  11.968 -29.191  0.00  0.00    -0.507 OA
ATOM     23  H   UNL     1     -34.114  12.180 -30.092  0.00  0.00    +0.000 HD
ENDBRANCH  19  22
ENDBRANCH  13  16
ENDBRANCH  11  12
ENDBRANCH   9  10
BRANCH   7  24
ATOM     24  C   UNL     1     -24.997  18.096 -21.535  0.00  0.00    +0.048 C 
BRANCH  24  25
ATOM     25  C   UNL     1     -25.751  19.391 -21.361  0.00  0.00    -0.028 A 
ATOM     26  C   UNL     1     -25.063  20.609 -21.255  0.00  0.00    -0.055 A 
ATOM     27  C   UNL     1     -25.753  21.794 -20.990  0.00  0.00    -0.043 A 
ATOM     28  C   UNL     1     -27.138  21.769 -20.841  0.00  0.00    +0.041 A 
ATOM     29  C   UNL     1     -27.842  20.577 -20.992  0.00  0.00    -0.043 A 
ATOM     30  C   UNL     1     -27.151  19.392 -21.253  0.00  0.00    -0.055 A 
ATOM     31 CL   UNL     1     -27.979  23.217 -20.445  0.00  0.00    -0.084 Cl
ENDBRANCH  24  25
ENDBRANCH   7  24
TORSDOF 6
ENDMDL
