MODEL 1
REMARK VINA RESULT:    -9.761      0.000      0.000
REMARK INTER + INTRA:         -14.062
REMARK INTER:                 -13.184
REMARK INTRA:                  -0.878
REMARK UNBOUND:                -0.878
REMARK  Name = 25c.sdf
REMARK  7 active torsions:
REMARK  status: ('A' for Active; 'I' for Inactive)
REMARK    1  A    between atoms: N_7  and  C_10
REMARK    2  A    between atoms: C_9  and  C_18
REMARK    3  A    between atoms: C_10  and  C_11
REMARK    4  A    between atoms: N_19  and  N_20
REMARK    5  A    between atoms: C_21  and  C_23
REMARK    6  A    between atoms: C_25  and  O_29
REMARK    7  A    between atoms: C_27  and  O_30
REMARK                            x       y       z     vdW  Elec       q    Type
REMARK                         _______ _______ _______ _____ _____    ______ ____
ROOT
ATOM      1  C   UNL     1     -24.685  14.220 -21.957  0.00  0.00    -0.061 A 
ATOM      2  C   UNL     1     -24.702  15.226 -20.997  0.00  0.00    -0.060 A 
ATOM      3  C   UNL     1     -25.753  16.152 -20.936  0.00  0.00    -0.038 A 
ATOM      4  C   UNL     1     -26.783  16.066 -21.891  0.00  0.00    +0.050 A 
ATOM      5  C   UNL     1     -26.814  15.017 -22.827  0.00  0.00    +0.009 A 
ATOM      6  C   UNL     1     -25.745  14.091 -22.856  0.00  0.00    -0.052 A 
ATOM      7  N   UNL     1     -27.881  16.871 -22.154  0.00  0.00    -0.342 N 
ATOM      8  C   UNL     1     -28.636  16.301 -23.152  0.00  0.00    +0.015 A 
ATOM      9  C   UNL     1     -28.022  15.137 -23.578  0.00  0.00    +0.020 A 
ENDROOT
BRANCH   9  10
ATOM     10  C   UNL     1     -28.521  14.234 -24.596  0.00  0.00    +0.055 C 
ATOM     11  N   UNL     1     -29.795  14.090 -24.762  0.00  0.00    -0.187 NA
BRANCH  11  12
ATOM     12  N   UNL     1     -30.190  13.211 -25.740  0.00  0.00    -0.203 N 
ATOM     13  C   UNL     1     -31.451  13.344 -26.320  0.00  0.00    +0.263 C 
ATOM     14  O   UNL     1     -32.292  14.187 -26.016  0.00  0.00    -0.268 OA
ATOM     15  H   UNL     1     -29.586  12.490 -26.030  0.00  0.00    +0.000 HD
BRANCH  13  16
ATOM     16  C   UNL     1     -31.788  12.363 -27.391  0.00  0.00    +0.045 A 
ATOM     17  C   UNL     1     -32.917  12.567 -28.204  0.00  0.00    -0.008 A 
ATOM     18  C   UNL     1     -33.189  11.667 -29.237  0.00  0.00    +0.121 A 
ATOM     19  C   UNL     1     -32.363  10.576 -29.474  0.00  0.00    +0.021 A 
ATOM     20  C   UNL     1     -31.245  10.384 -28.675  0.00  0.00    +0.121 A 
ATOM     21  C   UNL     1     -30.951  11.272 -27.645  0.00  0.00    -0.008 A 
BRANCH  18  22
ATOM     22  O   UNL     1     -34.266  11.822 -30.061  0.00  0.00    -0.507 OA
ATOM     23  H   UNL     1     -34.251  11.460 -30.925  0.00  0.00    +0.000 HD
ENDBRANCH  18  22
BRANCH  20  24
ATOM     24  O   UNL     1     -30.386   9.352 -28.855  0.00  0.00    -0.507 OA
ATOM     25  H   UNL     1     -30.490   8.564 -28.359  0.00  0.00    +0.000 HD
ENDBRANCH  20  24
ENDBRANCH  13  16
ENDBRANCH  11  12
ENDBRANCH   9  10
BRANCH   7  26
ATOM     26  C   UNL     1     -28.160  18.206 -21.609  0.00  0.00    +0.048 C 
BRANCH  26  27
ATOM     27  C   UNL     1     -27.051  19.189 -21.900  0.00  0.00    -0.028 A 
ATOM     28  C   UNL     1     -26.258  19.689 -20.858  0.00  0.00    -0.055 A 
ATOM     29  C   UNL     1     -25.384  20.755 -21.080  0.00  0.00    -0.043 A 
ATOM     30  C   UNL     1     -25.266  21.299 -22.356  0.00  0.00    +0.041 A 
ATOM     31  C   UNL     1     -25.956  20.736 -23.426  0.00  0.00    -0.043 A 
ATOM     32  C   UNL     1     -26.846  19.681 -23.200  0.00  0.00    -0.055 A 
ATOM     33 CL   UNL     1     -24.311  22.710 -22.597  0.00  0.00    -0.084 Cl
ENDBRANCH  26  27
ENDBRANCH   7  26
TORSDOF 7
ENDMDL
