MODEL 1
REMARK VINA RESULT:   -10.165      0.000      0.000
REMARK INTER + INTRA:         -13.594
REMARK INTER:                 -13.433
REMARK INTRA:                  -0.161
REMARK UNBOUND:                -0.161
REMARK  Name = 27c.sdf
REMARK  6 active torsions:
REMARK  status: ('A' for Active; 'I' for Inactive)
REMARK    1  A    between atoms: N_7  and  C_10
REMARK    2  A    between atoms: C_9  and  C_18
REMARK    3  A    between atoms: C_10  and  C_11
REMARK    4  A    between atoms: N_19  and  N_20
REMARK    5  A    between atoms: C_21  and  C_23
REMARK    6  A    between atoms: C_26  and  N_29
REMARK                            x       y       z     vdW  Elec       q    Type
REMARK                         _______ _______ _______ _____ _____    ______ ____
ROOT
ATOM      1  C   UNL     1     -26.090  12.985 -20.819  0.00  0.00    -0.061 A 
ATOM      2  C   UNL     1     -25.305  13.802 -20.016  0.00  0.00    -0.060 A 
ATOM      3  C   UNL     1     -25.173  15.168 -20.288  0.00  0.00    -0.038 A 
ATOM      4  C   UNL     1     -25.857  15.699 -21.396  0.00  0.00    +0.050 A 
ATOM      5  C   UNL     1     -26.697  14.904 -22.185  0.00  0.00    +0.009 A 
ATOM      6  C   UNL     1     -26.799  13.525 -21.895  0.00  0.00    -0.052 A 
ATOM      7  N   UNL     1     -25.873  16.969 -21.944  0.00  0.00    -0.342 N 
ATOM      8  C   UNL     1     -26.759  17.009 -22.992  0.00  0.00    +0.015 A 
ATOM      9  C   UNL     1     -27.298  15.747 -23.168  0.00  0.00    +0.020 A 
ENDROOT
BRANCH   9  10
ATOM     10  C   UNL     1     -28.290  15.376 -24.155  0.00  0.00    +0.055 C 
ATOM     11  N   UNL     1     -29.339  14.710 -23.799  0.00  0.00    -0.187 NA
BRANCH  11  12
ATOM     12  N   UNL     1     -30.221  14.393 -24.800  0.00  0.00    -0.203 N 
ATOM     13  C   UNL     1     -30.208  13.114 -25.343  0.00  0.00    +0.263 C 
ATOM     14  O   UNL     1     -29.462  12.205 -24.992  0.00  0.00    -0.268 OA
ATOM     15  H   UNL     1     -30.860  15.065 -25.131  0.00  0.00    +0.000 HD
BRANCH  13  16
ATOM     16  C   UNL     1     -31.222  12.847 -26.405  0.00  0.00    +0.038 A 
ATOM     17  C   UNL     1     -32.249  13.744 -26.713  0.00  0.00    -0.048 A 
ATOM     18  C   UNL     1     -33.175  13.432 -27.717  0.00  0.00    -0.040 A 
ATOM     19  C   UNL     1     -33.111  12.214 -28.401  0.00  0.00    +0.025 A 
ATOM     20  C   UNL     1     -32.032  11.365 -28.152  0.00  0.00    -0.040 A 
ATOM     21  C   UNL     1     -31.102  11.666 -27.149  0.00  0.00    -0.048 A 
BRANCH  19  22
ATOM     22  N   UNL     1     -33.969  11.964 -29.476  0.00  0.00    -0.358 N 
ATOM     23  H   UNL     1     -34.910  11.726 -29.310  0.00  0.00    +0.000 HD
ATOM     24  H   UNL     1     -33.633  12.026 -30.400  0.00  0.00    +0.000 HD
ENDBRANCH  19  22
ENDBRANCH  13  16
ENDBRANCH  11  12
ENDBRANCH   9  10
BRANCH   7  25
ATOM     25  C   UNL     1     -25.005  18.088 -21.574  0.00  0.00    +0.048 C 
BRANCH  25  26
ATOM     26  C   UNL     1     -25.783  19.373 -21.424  0.00  0.00    -0.028 A 
ATOM     27  C   UNL     1     -25.115  20.604 -21.338  0.00  0.00    -0.055 A 
ATOM     28  C   UNL     1     -25.820  21.774 -21.051  0.00  0.00    -0.043 A 
ATOM     29  C   UNL     1     -27.199  21.724 -20.869  0.00  0.00    +0.041 A 
ATOM     30  C   UNL     1     -27.887  20.525 -21.025  0.00  0.00    -0.043 A 
ATOM     31  C   UNL     1     -27.181  19.352 -21.304  0.00  0.00    -0.055 A 
ATOM     32 CL   UNL     1     -28.052  23.149 -20.417  0.00  0.00    -0.084 Cl
ENDBRANCH  25  26
ENDBRANCH   7  25
TORSDOF 6
ENDMDL
