MODEL 1
REMARK VINA RESULT:    -6.187      0.000      0.000
REMARK INTER + INTRA:          -6.755
REMARK INTER:                  -6.729
REMARK INTRA:                  -0.026
REMARK UNBOUND:                -0.026
REMARK  Name = 4.sdf
REMARK  2 active torsions:
REMARK  status: ('A' for Active; 'I' for Inactive)
REMARK    1  A    between atoms: C_9  and  C_10
REMARK    2  A    between atoms: C_10  and  O_11
REMARK                            x       y       z     vdW  Elec       q    Type
REMARK                         _______ _______ _______ _____ _____    ______ ____
ROOT
ATOM      1  C   UNL     1     -25.305  15.255 -20.274  0.00  0.00    -0.061 A 
ATOM      2  C   UNL     1     -25.220  13.872 -20.137  0.00  0.00    -0.060 A 
ATOM      3  C   UNL     1     -25.894  13.022 -21.018  0.00  0.00    -0.038 A 
ATOM      4  C   UNL     1     -26.659  13.607 -22.034  0.00  0.00    +0.047 A 
ATOM      5  C   UNL     1     -26.776  14.991 -22.193  0.00  0.00    +0.005 A 
ATOM      6  C   UNL     1     -26.076  15.826 -21.296  0.00  0.00    -0.052 A 
ATOM      7  N   UNL     1     -27.413  13.018 -23.020  0.00  0.00    -0.360 N 
ATOM      8  C   UNL     1     -28.014  13.977 -23.787  0.00  0.00    +0.008 A 
ATOM      9  C   UNL     1     -27.653  15.221 -23.305  0.00  0.00    +0.003 A 
ATOM     10  H   UNL     1     -27.506  12.048 -23.155  0.00  0.00    +0.000 HD
ENDROOT
BRANCH   9  11
ATOM     11  C   UNL     1     -28.123  16.533 -23.836  0.00  0.00    +0.071 C 
BRANCH  11  12
ATOM     12  O   UNL     1     -29.427  16.441 -24.401  0.00  0.00    -0.390 OA
ATOM     13  H   UNL     1     -29.769  15.542 -24.279  0.00  0.00    +0.000 HD
ENDBRANCH  11  12
ENDBRANCH   9  11
TORSDOF 2
ENDMDL
