MODEL 1
REMARK VINA RESULT:    -7.879      0.000      0.000
REMARK INTER + INTRA:          -9.724
REMARK INTER:                  -9.491
REMARK INTRA:                  -0.233
REMARK UNBOUND:                -0.233
REMARK  Name = 4a.pdb
REMARK  4 active torsions:
REMARK  status: ('A' for Active; 'I' for Inactive)
REMARK    1  A    between atoms: N_7  and  C_11
REMARK    2  A    between atoms: C_9  and  C_10
REMARK    3  A    between atoms: C_10  and  O_18
REMARK    4  A    between atoms: C_11  and  C_12
REMARK                            x       y       z     vdW  Elec       q    Type
REMARK                         _______ _______ _______ _____ _____    ______ ____
ROOT
ATOM      1  C   UNL     1     -28.268  14.152 -23.238  0.00  0.00    -0.061 A 
ATOM      2  C   UNL     1     -28.946  15.146 -23.934  0.00  0.00    -0.060 A 
ATOM      3  C   UNL     1     -28.572  16.486 -23.816  0.00  0.00    -0.038 A 
ATOM      4  C   UNL     1     -27.499  16.809 -22.968  0.00  0.00    +0.050 A 
ATOM      5  C   UNL     1     -26.797  15.827 -22.263  0.00  0.00    +0.005 A 
ATOM      6  C   UNL     1     -27.192  14.478 -22.406  0.00  0.00    -0.052 A 
ATOM      7  N   UNL     1     -26.930  18.026 -22.640  0.00  0.00    -0.342 N 
ATOM      8  C   UNL     1     -25.882  17.831 -21.775  0.00  0.00    +0.011 A 
ATOM      9  C   UNL     1     -25.766  16.479 -21.512  0.00  0.00    +0.003 A 
ENDROOT
BRANCH   9  10
ATOM     10  C   UNL     1     -24.756  15.837 -20.624  0.00  0.00    +0.071 C 
BRANCH  10  11
ATOM     11  O   UNL     1     -23.851  15.027 -21.368  0.00  0.00    -0.390 OA
ATOM     12  H   UNL     1     -23.115  14.757 -20.797  0.00  0.00    +0.000 HD
ENDBRANCH  10  11
ENDBRANCH   9  10
BRANCH   7  13
ATOM     13  C   UNL     1     -27.343  19.332 -23.145  0.00  0.00    +0.048 C 
BRANCH  13  14
ATOM     14  C   UNL     1     -26.489  20.434 -22.565  0.00  0.00    -0.028 A 
ATOM     15  C   UNL     1     -24.629  21.990 -22.772  0.00  0.00    -0.047 A 
ATOM     16  C   UNL     1     -25.022  22.614 -21.589  0.00  0.00    +0.018 A 
ATOM     17  C   UNL     1     -26.121  22.141 -20.874  0.00  0.00    -0.047 A 
ATOM     18  C   UNL     1     -26.852  21.055 -21.360  0.00  0.00    -0.056 A 
ATOM     19 BR   UNL     1     -24.076  24.127 -20.970  0.00  0.00    -0.050 Br
ATOM     20  C   UNL     1     -25.357  20.899 -23.251  0.00  0.00    -0.056 A 
ENDBRANCH  13  14
ENDBRANCH   7  13
TORSDOF 4
ENDMDL
