MODEL 1
REMARK VINA RESULT:    -8.601      0.000      0.000
REMARK INTER + INTRA:          -9.838
REMARK INTER:                  -9.858
REMARK INTRA:                   0.020
REMARK UNBOUND:                 0.020
REMARK  Name = 4d.sdf
REMARK  3 active torsions:
REMARK  status: ('A' for Active; 'I' for Inactive)
REMARK    1  A    between atoms: C_9  and  C_10
REMARK    2  A    between atoms: C_10  and  O_18
REMARK    3  A    between atoms: C_11  and  C_12
REMARK                            x       y       z     vdW  Elec       q    Type
REMARK                         _______ _______ _______ _____ _____    ______ ____
ROOT
ATOM      1  C   UNL     1     -29.235  20.974 -22.133  0.00  0.00    -0.061 A 
ATOM      2  C   UNL     1     -29.852  19.841 -22.649  0.00  0.00    -0.060 A 
ATOM      3  C   UNL     1     -29.168  18.625 -22.731  0.00  0.00    -0.037 A 
ATOM      4  C   UNL     1     -27.833  18.571 -22.285  0.00  0.00    +0.057 A 
ATOM      5  C   UNL     1     -27.199  19.702 -21.755  0.00  0.00    +0.006 A 
ATOM      6  C   UNL     1     -27.914  20.917 -21.683  0.00  0.00    -0.052 A 
ATOM      7  N   UNL     1     -26.941  17.503 -22.200  0.00  0.00    -0.283 N 
ATOM      8  C   UNL     1     -25.749  17.991 -21.688  0.00  0.00    +0.019 A 
ATOM      9  C   UNL     1     -25.875  19.327 -21.381  0.00  0.00    +0.004 A 
ATOM     10  C   UNL     1     -27.181  16.148 -22.551  0.00  0.00    +0.263 C 
ATOM     11  O   UNL     1     -28.064  15.903 -23.366  0.00  0.00    -0.267 OA
ENDROOT
BRANCH  10  12
ATOM     12  C   UNL     1     -26.405  15.020 -21.971  0.00  0.00    +0.040 A 
ATOM     13  C   UNL     1     -26.036  15.048 -20.618  0.00  0.00    -0.049 A 
ATOM     14  C   UNL     1     -25.253  14.023 -20.088  0.00  0.00    -0.061 A 
ATOM     15  C   UNL     1     -24.867  12.957 -20.896  0.00  0.00    -0.062 A 
ATOM     16  C   UNL     1     -25.284  12.898 -22.228  0.00  0.00    -0.061 A 
ATOM     17  C   UNL     1     -26.060  13.925 -22.767  0.00  0.00    -0.049 A 
ENDBRANCH  10  12
BRANCH   9  18
ATOM     18  C   UNL     1     -24.824  20.193 -20.777  0.00  0.00    +0.071 C 
BRANCH  18  19
ATOM     19  O   UNL     1     -23.799  19.414 -20.175  0.00  0.00    -0.390 OA
ATOM     20  H   UNL     1     -23.370  19.930 -19.474  0.00  0.00    +0.000 HD
ENDBRANCH  18  19
ENDBRANCH   9  18
TORSDOF 3
ENDMDL
