MODEL 1
REMARK VINA RESULT:    -8.294      0.000      0.000
REMARK INTER + INTRA:         -11.470
REMARK INTER:                 -10.719
REMARK INTRA:                  -0.752
REMARK UNBOUND:                -0.752
REMARK  Name = 5b.sdf
REMARK  6 active torsions:
REMARK  status: ('A' for Active; 'I' for Inactive)
REMARK    1  A    between atoms: N_7  and  C_12
REMARK    2  A    between atoms: C_9  and  C_10
REMARK    3  A    between atoms: C_11  and  C_19
REMARK    4  A    between atoms: C_12  and  C_13
REMARK    5  A    between atoms: C_19  and  O_20
REMARK    6  A    between atoms: O_20  and  C_22
REMARK                            x       y       z     vdW  Elec       q    Type
REMARK                         _______ _______ _______ _____ _____    ______ ____
ROOT
ATOM      1  C   UNL     1     -25.389  14.416 -20.698  0.00  0.00    -0.061 A 
ATOM      2  C   UNL     1     -24.919  15.719 -20.597  0.00  0.00    -0.060 A 
ATOM      3  C   UNL     1     -25.445  16.736 -21.401  0.00  0.00    -0.038 A 
ATOM      4  C   UNL     1     -26.468  16.411 -22.309  0.00  0.00    +0.050 A 
ATOM      5  C   UNL     1     -26.987  15.114 -22.397  0.00  0.00    +0.007 A 
ATOM      6  C   UNL     1     -26.423  14.104 -21.585  0.00  0.00    -0.052 A 
ATOM      7  N   UNL     1     -27.138  17.177 -23.246  0.00  0.00    -0.342 N 
ATOM      8  C   UNL     1     -28.107  16.417 -23.865  0.00  0.00    +0.013 A 
ATOM      9  C   UNL     1     -28.047  15.136 -23.356  0.00  0.00    +0.000 A 
ENDROOT
BRANCH   9  10
ATOM     10  C   UNL     1     -28.886  14.024 -23.712  0.00  0.00    -0.046 C 
ATOM     11  C   UNL     1     -29.308  13.724 -24.948  0.00  0.00    +0.023 C 
BRANCH  11  12
ATOM     12  C   UNL     1     -30.190  12.590 -25.304  0.00  0.00    +0.332 C 
ATOM     13  O   UNL     1     -30.101  11.512 -24.730  0.00  0.00    -0.246 OA
BRANCH  12  14
ATOM     14  O   UNL     1     -31.059  12.888 -26.298  0.00  0.00    -0.465 OA
ATOM     15  C   UNL     1     -31.919  11.800 -26.649  0.00  0.00    +0.082 C 
ENDBRANCH  12  14
ENDBRANCH  11  12
ENDBRANCH   9  10
BRANCH   7  16
ATOM     16  C   UNL     1     -26.798  18.544 -23.638  0.00  0.00    +0.048 C 
BRANCH  16  17
ATOM     17  C   UNL     1     -27.460  19.573 -22.761  0.00  0.00    -0.025 A 
ATOM     18  C   UNL     1     -28.794  19.943 -22.964  0.00  0.00    -0.039 A 
ATOM     19  C   UNL     1     -29.344  20.933 -22.164  0.00  0.00    +0.028 A 
ATOM     20  N   UNL     1     -28.671  21.560 -21.178  0.00  0.00    -0.263 NA
ATOM     21  C   UNL     1     -27.391  21.179 -20.982  0.00  0.00    +0.028 A 
ATOM     22  C   UNL     1     -26.753  20.204 -21.732  0.00  0.00    -0.039 A 
ENDBRANCH  16  17
ENDBRANCH   7  16
TORSDOF 5
ENDMDL
