MODEL 1
REMARK VINA RESULT:    -9.410      0.000      0.000
REMARK INTER + INTRA:         -11.551
REMARK INTER:                 -11.611
REMARK INTRA:                   0.060
REMARK UNBOUND:                 0.060
REMARK  Name = 5d.sdf
REMARK  5 active torsions:
REMARK  status: ('A' for Active; 'I' for Inactive)
REMARK    1  A    between atoms: C_9  and  C_10
REMARK    2  A    between atoms: C_11  and  C_19
REMARK    3  A    between atoms: C_12  and  C_13
REMARK    4  A    between atoms: C_19  and  O_20
REMARK    5  A    between atoms: O_20  and  C_22
REMARK                            x       y       z     vdW  Elec       q    Type
REMARK                         _______ _______ _______ _____ _____    ______ ____
ROOT
ATOM      1  C   UNL     1     -25.314  13.026 -20.624  0.00  0.00    -0.061 A 
ATOM      2  C   UNL     1     -24.605  14.155 -20.237  0.00  0.00    -0.060 A 
ATOM      3  C   UNL     1     -24.995  15.426 -20.666  0.00  0.00    -0.037 A 
ATOM      4  C   UNL     1     -26.122  15.542 -21.502  0.00  0.00    +0.057 A 
ATOM      5  C   UNL     1     -26.856  14.415 -21.900  0.00  0.00    +0.007 A 
ATOM      6  C   UNL     1     -26.436  13.143 -21.452  0.00  0.00    -0.052 A 
ATOM      7  N   UNL     1     -26.758  16.670 -22.020  0.00  0.00    -0.283 N 
ATOM      8  C   UNL     1     -27.823  16.235 -22.797  0.00  0.00    +0.021 A 
ATOM      9  C   UNL     1     -27.932  14.866 -22.721  0.00  0.00    +0.001 A 
ATOM     10  C   UNL     1     -26.417  18.029 -21.791  0.00  0.00    +0.263 C 
ATOM     11  O   UNL     1     -25.267  18.300 -21.455  0.00  0.00    -0.267 OA
ENDROOT
BRANCH  10  12
ATOM     12  C   UNL     1     -27.398  19.137 -21.936  0.00  0.00    +0.040 A 
ATOM     13  C   UNL     1     -27.400  20.191 -21.011  0.00  0.00    -0.049 A 
ATOM     14  C   UNL     1     -28.361  21.194 -21.098  0.00  0.00    -0.061 A 
ATOM     15  C   UNL     1     -29.298  21.169 -22.130  0.00  0.00    -0.062 A 
ATOM     16  C   UNL     1     -29.258  20.156 -23.090  0.00  0.00    -0.061 A 
ATOM     17  C   UNL     1     -28.302  19.141 -23.003  0.00  0.00    -0.049 A 
ENDBRANCH  10  12
BRANCH   9  18
ATOM     18  C   UNL     1     -28.941  14.065 -23.356  0.00  0.00    -0.046 C 
ATOM     19  C   UNL     1     -28.797  13.419 -24.525  0.00  0.00    +0.023 C 
BRANCH  19  20
ATOM     20  C   UNL     1     -29.816  12.594 -25.208  0.00  0.00    +0.332 C 
ATOM     21  O   UNL     1     -30.192  11.532 -24.732  0.00  0.00    -0.246 OA
BRANCH  20  22
ATOM     22  O   UNL     1     -30.248  13.141 -26.370  0.00  0.00    -0.465 OA
ATOM     23  C   UNL     1     -31.576  12.738 -26.724  0.00  0.00    +0.082 C 
ENDBRANCH  20  22
ENDBRANCH  19  20
ENDBRANCH   9  18
TORSDOF 4
ENDMDL
