MODEL 1
REMARK VINA RESULT:    -7.691      0.000      0.000
REMARK INTER + INTRA:         -10.694
REMARK INTER:                  -9.939
REMARK INTRA:                  -0.755
REMARK UNBOUND:                -0.755
REMARK  Name = 7a.sdf
REMARK  6 active torsions:
REMARK  status: ('A' for Active; 'I' for Inactive)
REMARK    1  A    between atoms: N_7  and  C_12
REMARK    2  A    between atoms: C_9  and  C_10
REMARK    3  A    between atoms: C_10  and  C_11
REMARK    4  A    between atoms: C_11  and  O_21
REMARK    5  A    between atoms: C_12  and  C_13
REMARK    6  A    between atoms: O_21  and  C_22
REMARK                            x       y       z     vdW  Elec       q    Type
REMARK                         _______ _______ _______ _____ _____    ______ ____
ROOT
ATOM      1  C   UNL     1     -25.526  13.558 -20.652  0.00  0.00    -0.061 A 
ATOM      2  C   UNL     1     -24.933  14.815 -20.621  0.00  0.00    -0.060 A 
ATOM      3  C   UNL     1     -25.460  15.883 -21.366  0.00  0.00    -0.038 A 
ATOM      4  C   UNL     1     -26.587  15.645 -22.176  0.00  0.00    +0.050 A 
ATOM      5  C   UNL     1     -27.232  14.399 -22.170  0.00  0.00    +0.004 A 
ATOM      6  C   UNL     1     -26.686  13.348 -21.399  0.00  0.00    -0.052 A 
ATOM      7  N   UNL     1     -27.267  16.441 -23.087  0.00  0.00    -0.342 N 
ATOM      8  C   UNL     1     -28.370  15.764 -23.553  0.00  0.00    +0.010 A 
ATOM      9  C   UNL     1     -28.394  14.501 -22.997  0.00  0.00    -0.012 A 
ENDROOT
BRANCH   9  10
ATOM     10  C   UNL     1     -29.447  13.458 -23.219  0.00  0.00    +0.072 C 
BRANCH  10  11
ATOM     11  C   UNL     1     -29.489  12.918 -24.635  0.00  0.00    +0.311 C 
ATOM     12  O   UNL     1     -28.750  12.056 -25.103  0.00  0.00    -0.250 OA
BRANCH  11  13
ATOM     13  O   UNL     1     -30.481  13.544 -25.336  0.00  0.00    -0.468 OA
ATOM     14  C   UNL     1     -31.082  12.717 -26.338  0.00  0.00    +0.082 C 
ENDBRANCH  11  13
ENDBRANCH  10  11
ENDBRANCH   9  10
BRANCH   7  15
ATOM     15  C   UNL     1     -26.860  17.743 -23.625  0.00  0.00    +0.048 C 
BRANCH  15  16
ATOM     16  C   UNL     1     -27.204  18.879 -22.690  0.00  0.00    -0.028 A 
ATOM     17  C   UNL     1     -28.447  19.517 -22.793  0.00  0.00    -0.056 A 
ATOM     18  C   UNL     1     -28.696  20.697 -22.092  0.00  0.00    -0.047 A 
ATOM     19  C   UNL     1     -27.716  21.223 -21.255  0.00  0.00    +0.018 A 
ATOM     20  C   UNL     1     -26.519  20.540 -21.052  0.00  0.00    -0.047 A 
ATOM     21  C   UNL     1     -26.265  19.367 -21.767  0.00  0.00    -0.056 A 
ATOM     22 BR   UNL     1     -27.979  22.916 -20.456  0.00  0.00    -0.050 Br
ENDBRANCH  15  16
ENDBRANCH   7  15
TORSDOF 5
ENDMDL
