MODEL 1
REMARK VINA RESULT:    -9.368      0.000      0.000
REMARK INTER + INTRA:         -11.632
REMARK INTER:                 -11.559
REMARK INTRA:                  -0.073
REMARK UNBOUND:                -0.073
REMARK  Name = 7d.sdf
REMARK  5 active torsions:
REMARK  status: ('A' for Active; 'I' for Inactive)
REMARK    1  A    between atoms: C_9  and  C_10
REMARK    2  A    between atoms: C_10  and  C_11
REMARK    3  A    between atoms: C_11  and  O_20
REMARK    4  A    between atoms: C_12  and  C_13
REMARK    5  A    between atoms: O_20  and  C_22
REMARK                            x       y       z     vdW  Elec       q    Type
REMARK                         _______ _______ _______ _____ _____    ______ ____
ROOT
ATOM      1  C   UNL     1     -29.418  21.147 -22.087  0.00  0.00    -0.061 A 
ATOM      2  C   UNL     1     -30.079  20.025 -22.572  0.00  0.00    -0.060 A 
ATOM      3  C   UNL     1     -29.418  18.800 -22.695  0.00  0.00    -0.037 A 
ATOM      4  C   UNL     1     -28.062  18.725 -22.323  0.00  0.00    +0.057 A 
ATOM      5  C   UNL     1     -27.381  19.844 -21.821  0.00  0.00    +0.004 A 
ATOM      6  C   UNL     1     -28.076  21.068 -21.708  0.00  0.00    -0.052 A 
ATOM      7  N   UNL     1     -27.185  17.642 -22.280  0.00  0.00    -0.283 N 
ATOM      8  C   UNL     1     -25.950  18.117 -21.877  0.00  0.00    +0.018 A 
ATOM      9  C   UNL     1     -26.048  19.442 -21.512  0.00  0.00    -0.011 A 
ATOM     10  C   UNL     1     -27.469  16.283 -22.567  0.00  0.00    +0.263 C 
ATOM     11  O   UNL     1     -28.417  16.020 -23.301  0.00  0.00    -0.267 OA
ENDROOT
BRANCH  10  12
ATOM     12  C   UNL     1     -26.655  15.170 -22.010  0.00  0.00    +0.040 A 
ATOM     13  C   UNL     1     -26.427  14.021 -22.780  0.00  0.00    -0.049 A 
ATOM     14  C   UNL     1     -25.720  12.947 -22.240  0.00  0.00    -0.061 A 
ATOM     15  C   UNL     1     -25.216  13.030 -20.944  0.00  0.00    -0.062 A 
ATOM     16  C   UNL     1     -25.399  14.195 -20.193  0.00  0.00    -0.061 A 
ATOM     17  C   UNL     1     -26.114  15.275 -20.726  0.00  0.00    -0.049 A 
ENDBRANCH  10  12
BRANCH   9  18
ATOM     18  C   UNL     1     -24.945  20.266 -20.922  0.00  0.00    +0.072 C 
BRANCH  18  19
ATOM     19  C   UNL     1     -24.647  21.521 -21.730  0.00  0.00    +0.311 C 
ATOM     20  O   UNL     1     -24.482  21.586 -22.941  0.00  0.00    -0.250 OA
BRANCH  19  21
ATOM     21  O   UNL     1     -24.607  22.598 -20.889  0.00  0.00    -0.468 OA
ATOM     22  C   UNL     1     -24.269  23.823 -21.543  0.00  0.00    +0.082 C 
ENDBRANCH  19  21
ENDBRANCH  18  19
ENDBRANCH   9  18
TORSDOF 4
ENDMDL
