MODEL 1
REMARK VINA RESULT:   -10.012      0.000      0.000
REMARK INTER + INTRA:         -13.058
REMARK INTER:                 -12.939
REMARK INTRA:                  -0.120
REMARK UNBOUND:                -0.120
REMARK  Name = 8b.sdf
REMARK  5 active torsions:
REMARK  status: ('A' for Active; 'I' for Inactive)
REMARK    1  A    between atoms: N_7  and  C_12
REMARK    2  A    between atoms: C_9  and  C_10
REMARK    3  A    between atoms: N_11  and  N_19
REMARK    4  A    between atoms: C_12  and  C_13
REMARK    5  A    between atoms: C_20  and  C_22
REMARK                            x       y       z     vdW  Elec       q    Type
REMARK                         _______ _______ _______ _____ _____    ______ ____
ROOT
ATOM      1  C   UNL     1     -26.055  12.992 -20.898  0.00  0.00    -0.061 A 
ATOM      2  C   UNL     1     -25.383  13.830 -20.016  0.00  0.00    -0.060 A 
ATOM      3  C   UNL     1     -25.310  15.209 -20.245  0.00  0.00    -0.038 A 
ATOM      4  C   UNL     1     -25.934  15.730 -21.392  0.00  0.00    +0.050 A 
ATOM      5  C   UNL     1     -26.664  14.910 -22.264  0.00  0.00    +0.009 A 
ATOM      6  C   UNL     1     -26.709  13.521 -22.012  0.00  0.00    -0.052 A 
ATOM      7  N   UNL     1     -25.978  17.011 -21.916  0.00  0.00    -0.342 N 
ATOM      8  C   UNL     1     -26.779  17.027 -23.031  0.00  0.00    +0.015 A 
ATOM      9  C   UNL     1     -27.240  15.748 -23.268  0.00  0.00    +0.020 A 
ENDROOT
BRANCH   9  10
ATOM     10  C   UNL     1     -28.133  15.349 -24.337  0.00  0.00    +0.055 C 
ATOM     11  N   UNL     1     -29.151  14.594 -24.074  0.00  0.00    -0.187 NA
BRANCH  11  12
ATOM     12  N   UNL     1     -29.933  14.252 -25.140  0.00  0.00    -0.203 N 
ATOM     13  C   UNL     1     -30.226  12.911 -25.371  0.00  0.00    +0.263 C 
ATOM     14  O   UNL     1     -29.848  11.976 -24.678  0.00  0.00    -0.268 OA
ATOM     15  H   UNL     1     -30.288  14.948 -25.739  0.00  0.00    +0.000 HD
BRANCH  13  16
ATOM     16  C   UNL     1     -31.107  12.638 -26.543  0.00  0.00    +0.038 A 
ATOM     17  C   UNL     1     -30.997  11.472 -27.313  0.00  0.00    -0.049 A 
ATOM     18  C   UNL     1     -31.841  11.274 -28.412  0.00  0.00    -0.047 A 
ATOM     19  C   UNL     1     -32.801  12.234 -28.734  0.00  0.00    +0.018 A 
ATOM     20  C   UNL     1     -32.938  13.382 -27.958  0.00  0.00    -0.047 A 
ATOM     21  C   UNL     1     -32.095  13.582 -26.861  0.00  0.00    -0.049 A 
ATOM     22 BR   UNL     1     -33.926  11.971 -30.229  0.00  0.00    -0.050 Br
ENDBRANCH  13  16
ENDBRANCH  11  12
ENDBRANCH   9  10
BRANCH   7  23
ATOM     23  C   UNL     1     -25.202  18.166 -21.468  0.00  0.00    +0.048 C 
BRANCH  23  24
ATOM     24  C   UNL     1     -26.048  19.407 -21.350  0.00  0.00    -0.025 A 
ATOM     25  C   UNL     1     -25.458  20.661 -21.169  0.00  0.00    -0.039 A 
ATOM     26  C   UNL     1     -26.277  21.764 -20.986  0.00  0.00    +0.028 A 
ATOM     27  N   UNL     1     -27.624  21.709 -20.996  0.00  0.00    -0.263 NA
ATOM     28  C   UNL     1     -28.178  20.495 -21.199  0.00  0.00    +0.028 A 
ATOM     29  C   UNL     1     -27.445  19.333 -21.382  0.00  0.00    -0.039 A 
ENDBRANCH  23  24
ENDBRANCH   7  23
TORSDOF 5
ENDMDL
