MODEL 1
REMARK VINA RESULT:    -7.943      0.000      0.000
REMARK INTER + INTRA:         -12.753
REMARK INTER:                 -11.426
REMARK INTRA:                  -1.327
REMARK UNBOUND:                -1.327
REMARK  Name = native.pdb
REMARK  9 active torsions:
REMARK  status: ('A' for Active; 'I' for Inactive)
REMARK    1  A    between atoms: P_1  and  O_8
REMARK    2  A    between atoms: P_5  and  O_8
REMARK    3  A    between atoms: P_5  and  O_9
REMARK    4  A    between atoms: O_9  and  C_10
REMARK    5  A    between atoms: C_10  and  C_11
REMARK    6  A    between atoms: C_13  and  O_14
REMARK    7  A    between atoms: C_15  and  O_16
REMARK    8  A    between atoms: C_17  and  N_18
REMARK    9  A    between atoms: C_22  and  N_23
REMARK                            x       y       z     vdW  Elec       q    Type
REMARK                         _______ _______ _______ _____ _____    ______ ____
ROOT
ATOM      1  C   UNL     1     -28.210  19.979 -22.896  0.00  0.00    +0.113 C 
ATOM      2  O   UNL     1     -27.488  18.851 -23.442  0.00  0.00    -0.346 OA
ATOM      3  C   UNL     1     -29.671  19.730 -23.275  0.00  0.00    +0.114 C 
ATOM      4  C   UNL     1     -29.789  18.216 -23.220  0.00  0.00    +0.129 C 
ATOM      5  C   UNL     1     -28.413  17.775 -23.722  0.00  0.00    +0.166 C 
ENDROOT
BRANCH   5   6
ATOM      6  N   UNL     1     -27.952  16.552 -23.095  0.00  0.00    -0.289 N 
ATOM      7  C   UNL     1     -28.567  15.319 -23.139  0.00  0.00    +0.100 A 
ATOM      8  N   UNL     1     -27.868  14.393 -22.510  0.00  0.00    -0.235 NA
ATOM      9  C   UNL     1     -26.766  15.060 -22.029  0.00  0.00    +0.120 A 
ATOM     10  C   UNL     1     -25.608  14.506 -21.258  0.00  0.00    +0.146 C 
ATOM     11  N   UNL     1     -24.583  15.520 -20.911  0.00  0.00    -0.251 NA
ATOM     12  C   UNL     1     -24.791  16.737 -21.297  0.00  0.00    +0.083 C 
ATOM     13  N   UNL     1     -25.866  17.255 -21.994  0.00  0.00    -0.290 N 
ATOM     14  C   UNL     1     -26.826  16.386 -22.352  0.00  0.00    +0.132 A 
ATOM     15  H   UNL     1     -25.924  18.212 -22.218  0.00  0.00    +0.000 HD
BRANCH  10  16
ATOM     16  N   UNL     1     -24.982  13.464 -22.055  0.00  0.00    -0.304 N 
ATOM     17  H   UNL     1     -23.968  13.534 -21.971  0.00  0.00    +0.000 HD
ATOM     18  H   UNL     1     -25.251  13.577 -23.033  0.00  0.00    +0.000 HD
ATOM     19  H   UNL     1     -25.289  12.550 -21.721  0.00  0.00    +0.000 HD
ENDBRANCH  10  16
ENDBRANCH   5   6
BRANCH   3  20
ATOM     20  O   UNL     1     -29.953  20.123 -24.635  0.00  0.00    -0.386 OA
ATOM     21  H   UNL     1     -29.309  19.709 -25.231  0.00  0.00    +0.000 HD
ENDBRANCH   3  20
BRANCH   4  22
ATOM     22  O   UNL     1     -30.851  17.724 -24.050  0.00  0.00    -0.385 OA
ATOM     23  H   UNL     1     -30.486  17.415 -24.893  0.00  0.00    +0.000 HD
ENDBRANCH   4  22
BRANCH   1  24
ATOM     24  C   UNL     1     -27.941  20.094 -21.377  0.00  0.00    +0.088 C 
BRANCH  24  25
ATOM     25  O   UNL     1     -26.574  19.754 -21.122  0.00  0.00    -0.284 OA
BRANCH  25  26
ATOM     26  P   UNL     1     -25.357  20.959 -21.366  0.00  0.00    +0.483 P 
ATOM     27  O   UNL     1     -24.523  20.384 -20.214  0.00  0.00    -0.227 OA
ATOM     28  O   UNL     1     -26.334  22.067 -20.669  0.00  0.00    -0.302 OA
BRANCH  26  29
ATOM     29  O   UNL     1     -24.141  22.165 -21.611  0.00  0.00    -0.186 OA
BRANCH  29  30
ATOM     30  P   UNL     1     -24.742  23.702 -21.093  0.00  0.00    +0.481 P 
ATOM     31  O   UNL     1     -23.465  24.007 -20.316  0.00  0.00    -0.227 OA
ATOM     32  O   UNL     1     -24.574  24.317 -22.591  0.00  0.00    -0.302 OA
ATOM     33  O   UNL     1     -25.343  25.240 -20.576  0.00  0.00    -0.302 OA
ENDBRANCH  29  30
ENDBRANCH  26  29
ENDBRANCH  25  26
ENDBRANCH  24  25
ENDBRANCH   1  24
TORSDOF 9
ENDMDL
