REMARK  Name = native.pdb
REMARK  3 active torsions:
REMARK  status: ('A' for Active; 'I' for Inactive)
REMARK    1  A    between atoms: C_1  and  C_14
REMARK    2  A    between atoms: C_8  and  C_9
REMARK    3  A    between atoms: C_15  and  C_17
REMARK                            x       y       z     vdW  Elec       q    Type
REMARK                         _______ _______ _______ _____ _____    ______ ____
ROOT
ATOM      1  C   UNL     1       0.546  -1.061  -0.026  0.00  0.00    +0.156 A 
ATOM      2  C   UNL     1      -0.827  -0.952  -0.087  0.00  0.00    +0.074 A 
ATOM      3  C   UNL     1      -0.063   1.022  -0.015  0.00  0.00    +0.228 A 
ATOM      4  O   UNL     1       1.049   0.216   0.004  0.00  0.00    -0.435 OA
ATOM      5  N   UNL     1      -1.204   0.365  -0.084  0.00  0.00    -0.217 NA
ENDROOT
BRANCH   1   9
ATOM      6  C   UNL     1       1.016  -3.492   0.072  0.00  0.00    -0.050 A 
ATOM      7  C   UNL     1       3.245  -4.333   0.452  0.00  0.00    +0.041 A 
ATOM      8  C   UNL     1       1.887  -4.568   0.264  0.00  0.00    -0.043 A 
ATOM      9  C   UNL     1       1.488  -2.168   0.073  0.00  0.00    +0.019 A 
ATOM     10  C   UNL     1       2.866  -1.956   0.228  0.00  0.00    -0.050 A 
ATOM     11  C   UNL     1       3.740  -3.031   0.421  0.00  0.00    -0.043 A 
ATOM     12 CL   UNL     1       4.308  -5.653   0.741  0.00  0.00    -0.084 Cl
ENDBRANCH   1   9
BRANCH   3  15
ATOM     13  C   UNL     1       1.437   3.027   0.147  0.00  0.00    -0.049 A 
ATOM     14  C   UNL     1      -0.782   4.676   0.529  0.00  0.00    -0.049 A 
ATOM     15  C   UNL     1       0.154   2.460   0.132  0.00  0.00    +0.037 A 
ATOM     16  C   UNL     1      -0.954   3.306   0.305  0.00  0.00    -0.049 A 
ATOM     17  C   UNL     1       1.613   4.398   0.373  0.00  0.00    -0.049 A 
ATOM     18  C   UNL     1       0.503   5.222   0.591  0.00  0.00    +0.037 A 
BRANCH  18  19
ATOM     19  C   UNL     1       0.639   6.669   0.895  0.00  0.00    +0.242 C 
ATOM     20  N   UNL     1       1.805   7.077   1.484  0.00  0.00    -0.325 N 
ATOM     21  O   UNL     1      -0.264   7.464   0.676  0.00  0.00    -0.270 OA
ATOM     22  H   UNL     1       2.525   6.427   1.655  0.00  0.00    +0.000 HD
ATOM     23  H   UNL     1       1.925   8.021   1.738  0.00  0.00    +0.000 HD
ENDBRANCH  18  19
ENDBRANCH   3  15
TORSDOF 3
