MODEL 1
REMARK VINA RESULT:    -6.026      0.000      0.000
REMARK INTER + INTRA:          -6.026
REMARK INTER:                  -6.026
REMARK INTRA:                   0.000
REMARK UNBOUND:                 0.000
REMARK  Name = 0.sdf
REMARK  0 active torsions:
REMARK  status: ('A' for Active; 'I' for Inactive)
REMARK                            x       y       z     vdW  Elec       q    Type
REMARK                         _______ _______ _______ _____ _____    ______ ____
ROOT
ATOM      1  C   UNL     1      77.277  50.905  17.772  0.00  0.00    -0.061 A 
ATOM      2  C   UNL     1      76.820  52.002  17.044  0.00  0.00    -0.060 A 
ATOM      3  C   UNL     1      75.832  52.849  17.558  0.00  0.00    -0.038 A 
ATOM      4  C   UNL     1      75.318  52.548  18.825  0.00  0.00    +0.046 A 
ATOM      5  C   UNL     1      75.755  51.456  19.575  0.00  0.00    -0.000 A 
ATOM      6  C   UNL     1      76.755  50.622  19.039  0.00  0.00    -0.053 A 
ATOM      7  N   UNL     1      74.352  53.189  19.568  0.00  0.00    -0.361 N 
ATOM      8  C   UNL     1      74.156  52.536  20.756  0.00  0.00    +0.003 A 
ATOM      9  C   UNL     1      75.015  51.461  20.790  0.00  0.00    -0.037 A 
ATOM     10  H   UNL     1      73.871  54.000  19.285  0.00  0.00    +0.000 HD
ENDROOT
TORSDOF 0
ENDMDL
