MODEL 1
REMARK VINA RESULT:    -8.466      0.000      0.000
REMARK INTER + INTRA:          -8.870
REMARK INTER:                  -8.961
REMARK INTRA:                   0.091
REMARK UNBOUND:                 0.091
REMARK  Name = 0d.sdf
REMARK  1 active torsions:
REMARK  status: ('A' for Active; 'I' for Inactive)
REMARK    1  A    between atoms: C_10  and  C_11
REMARK                            x       y       z     vdW  Elec       q    Type
REMARK                         _______ _______ _______ _____ _____    ______ ____
ROOT
ATOM      1  C   UNL     1      79.213  51.552  14.243  0.00  0.00    -0.061 A 
ATOM      2  C   UNL     1      79.491  50.618  15.236  0.00  0.00    -0.060 A 
ATOM      3  C   UNL     1      78.830  50.659  16.468  0.00  0.00    -0.037 A 
ATOM      4  C   UNL     1      77.876  51.670  16.685  0.00  0.00    +0.057 A 
ATOM      5  C   UNL     1      77.580  52.609  15.689  0.00  0.00    +0.000 A 
ATOM      6  C   UNL     1      78.262  52.550  14.459  0.00  0.00    -0.053 A 
ATOM      7  N   UNL     1      77.039  51.925  17.774  0.00  0.00    -0.283 N 
ATOM      8  C   UNL     1      76.279  53.047  17.468  0.00  0.00    +0.014 A 
ATOM      9  C   UNL     1      76.578  53.471  16.198  0.00  0.00    -0.036 A 
ATOM     10  C   UNL     1      76.949  51.184  18.980  0.00  0.00    +0.263 C 
ATOM     11  O   UNL     1      77.922  50.525  19.334  0.00  0.00    -0.267 OA
ENDROOT
BRANCH  10  12
ATOM     12  C   UNL     1      75.727  51.175  19.829  0.00  0.00    +0.040 A 
ATOM     13  C   UNL     1      75.267  52.359  20.420  0.00  0.00    -0.049 A 
ATOM     14  C   UNL     1      74.152  52.339  21.256  0.00  0.00    -0.061 A 
ATOM     15  C   UNL     1      73.473  51.140  21.477  0.00  0.00    -0.062 A 
ATOM     16  C   UNL     1      73.895  49.969  20.846  0.00  0.00    -0.061 A 
ATOM     17  C   UNL     1      75.017  49.985  20.013  0.00  0.00    -0.049 A 
ENDBRANCH  10  12
TORSDOF 1
ENDMDL
