MODEL 1
REMARK VINA RESULT:    -6.780      0.000      0.000
REMARK INTER + INTRA:          -7.722
REMARK INTER:                  -7.572
REMARK INTRA:                  -0.150
REMARK UNBOUND:                -0.150
REMARK  Name = 12.sdf
REMARK  2 active torsions:
REMARK  status: ('A' for Active; 'I' for Inactive)
REMARK    1  A    between atoms: C_9  and  C_10
REMARK    2  A    between atoms: C_10  and  C_11
REMARK                            x       y       z     vdW  Elec       q    Type
REMARK                         _______ _______ _______ _____ _____    ______ ____
ROOT
ATOM      1  C   UNL     1      77.947  50.937  17.058  0.00  0.00    -0.061 A 
ATOM      2  C   UNL     1      77.722  52.109  16.340  0.00  0.00    -0.060 A 
ATOM      3  C   UNL     1      76.729  53.009  16.731  0.00  0.00    -0.038 A 
ATOM      4  C   UNL     1      75.974  52.693  17.867  0.00  0.00    +0.047 A 
ATOM      5  C   UNL     1      76.185  51.536  18.621  0.00  0.00    +0.003 A 
ATOM      6  C   UNL     1      77.189  50.640  18.200  0.00  0.00    -0.052 A 
ATOM      7  N   UNL     1      74.954  53.390  18.467  0.00  0.00    -0.360 N 
ATOM      8  C   UNL     1      74.515  52.723  19.577  0.00  0.00    +0.006 A 
ATOM      9  C   UNL     1      75.268  51.573  19.724  0.00  0.00    -0.012 A 
ATOM     10  H   UNL     1      74.591  54.246  18.143  0.00  0.00    +0.000 HD
ENDROOT
BRANCH   9  11
ATOM     11  C   UNL     1      75.165  50.600  20.861  0.00  0.00    +0.072 C 
BRANCH  11  12
ATOM     12  C   UNL     1      73.768  50.335  21.377  0.00  0.00    +0.309 C 
ATOM     13  O   UNL     1      73.024  49.501  20.872  0.00  0.00    -0.251 OA
ATOM     14  O   UNL     1      73.415  51.003  22.497  0.00  0.00    -0.480 OA
ENDBRANCH  11  12
ENDBRANCH   9  11
TORSDOF 2
ENDMDL
