MODEL 1
REMARK VINA RESULT:    -7.687      0.000      0.000
REMARK INTER + INTRA:         -11.059
REMARK INTER:                  -9.933
REMARK INTRA:                  -1.126
REMARK UNBOUND:                -1.126
REMARK  Name = 15d.sdf
REMARK  5 active torsions:
REMARK  status: ('A' for Active; 'I' for Inactive)
REMARK    1  A    between atoms: C_9  and  C_10
REMARK    2  A    between atoms: C_10  and  O_11
REMARK    3  A    between atoms: O_11  and  C_12
REMARK    4  A    between atoms: C_12  and  C_13
REMARK    5  A    between atoms: C_15  and  C_16
REMARK                            x       y       z     vdW  Elec       q    Type
REMARK                         _______ _______ _______ _____ _____    ______ ____
ROOT
ATOM      1  C   UNL     1      73.324  46.547  26.735  0.00  0.00    -0.061 A 
ATOM      2  C   UNL     1      73.708  46.018  25.511  0.00  0.00    -0.060 A 
ATOM      3  C   UNL     1      73.740  46.815  24.362  0.00  0.00    -0.037 A 
ATOM      4  C   UNL     1      73.367  48.168  24.470  0.00  0.00    +0.057 A 
ATOM      5  C   UNL     1      72.980  48.719  25.700  0.00  0.00    +0.007 A 
ATOM      6  C   UNL     1      72.961  47.893  26.841  0.00  0.00    -0.052 A 
ATOM      7  N   UNL     1      73.366  49.194  23.524  0.00  0.00    -0.283 N 
ATOM      8  C   UNL     1      72.903  50.344  24.150  0.00  0.00    +0.020 A 
ATOM      9  C   UNL     1      72.685  50.100  25.490  0.00  0.00    +0.015 A 
ATOM     10  C   UNL     1      73.784  49.114  22.172  0.00  0.00    +0.263 C 
ATOM     11  O   UNL     1      73.766  48.019  21.616  0.00  0.00    -0.267 OA
ENDROOT
BRANCH  10  12
ATOM     12  C   UNL     1      74.251  50.297  21.400  0.00  0.00    +0.040 A 
ATOM     13  C   UNL     1      75.222  50.147  20.401  0.00  0.00    -0.049 A 
ATOM     14  C   UNL     1      75.703  51.263  19.720  0.00  0.00    -0.061 A 
ATOM     15  C   UNL     1      75.192  52.526  20.010  0.00  0.00    -0.062 A 
ATOM     16  C   UNL     1      74.180  52.672  20.961  0.00  0.00    -0.061 A 
ATOM     17  C   UNL     1      73.700  51.558  21.653  0.00  0.00    -0.049 A 
ENDBRANCH  10  12
BRANCH   9  18
ATOM     18  C   UNL     1      72.262  51.100  26.522  0.00  0.00    +0.120 C 
BRANCH  18  19
ATOM     19  O   UNL     1      73.391  51.749  27.129  0.00  0.00    -0.456 OA
BRANCH  19  20
ATOM     20  C   UNL     1      73.572  51.515  28.448  0.00  0.00    +0.339 C 
ATOM     21  O   UNL     1      73.052  52.122  29.369  0.00  0.00    -0.245 OA
BRANCH  20  22
ATOM     22  C   UNL     1      74.534  50.396  28.663  0.00  0.00    +0.059 A 
ATOM     23  C   UNL     1      75.612  50.267  27.776  0.00  0.00    -0.048 A 
ATOM     24  C   UNL     1      76.525  49.220  27.919  0.00  0.00    -0.061 A 
ATOM     25  C   UNL     1      76.372  48.300  28.955  0.00  0.00    -0.062 A 
ATOM     26  C   UNL     1      75.313  48.431  29.853  0.00  0.00    -0.061 A 
ATOM     27  C   UNL     1      74.394  49.475  29.710  0.00  0.00    -0.048 A 
ENDBRANCH  20  22
ENDBRANCH  19  20
ENDBRANCH  18  19
ENDBRANCH   9  18
TORSDOF 5
ENDMDL
