MODEL 1
REMARK VINA RESULT:    -9.128      0.000      0.000
REMARK INTER + INTRA:         -12.483
REMARK INTER:                 -11.797
REMARK INTRA:                  -0.686
REMARK UNBOUND:                -0.686
REMARK  Name = 17f.sdf
REMARK  5 active torsions:
REMARK  status: ('A' for Active; 'I' for Inactive)
REMARK    1  A    between atoms: N_7  and  C_11
REMARK    2  A    between atoms: C_9  and  C_10
REMARK    3  A    between atoms: C_11  and  C_12
REMARK    4  A    between atoms: C_12  and  C_13
REMARK    5  A    between atoms: N_21  and  N_22
REMARK                            x       y       z     vdW  Elec       q    Type
REMARK                         _______ _______ _______ _____ _____    ______ ____
ROOT
ATOM      1  C   UNL     1      73.075  49.907  25.410  0.00  0.00    -0.061 A 
ATOM      2  C   UNL     1      72.613  51.126  24.926  0.00  0.00    -0.060 A 
ATOM      3  C   UNL     1      72.645  51.422  23.558  0.00  0.00    -0.038 A 
ATOM      4  C   UNL     1      73.129  50.437  22.683  0.00  0.00    +0.050 A 
ATOM      5  C   UNL     1      73.472  49.159  23.137  0.00  0.00    +0.009 A 
ATOM      6  C   UNL     1      73.491  48.910  24.526  0.00  0.00    -0.052 A 
ATOM      7  N   UNL     1      73.385  50.454  21.324  0.00  0.00    -0.338 N 
ATOM      8  C   UNL     1      73.642  49.178  20.887  0.00  0.00    +0.015 A 
ATOM      9  C   UNL     1      73.666  48.338  21.984  0.00  0.00    +0.020 A 
ENDROOT
BRANCH   9  10
ATOM     10  C   UNL     1      73.795  46.897  21.976  0.00  0.00    +0.055 C 
ATOM     11  N   UNL     1      74.879  46.348  22.426  0.00  0.00    -0.186 NA
BRANCH  11  12
ATOM     12  N   UNL     1      74.935  44.988  22.249  0.00  0.00    -0.191 N 
ATOM     13  C   UNL     1      74.749  44.127  23.301  0.00  0.00    +0.317 C 
ATOM     14  O   UNL     1      74.914  42.917  23.212  0.00  0.00    -0.251 OA
ATOM     15  N   UNL     1      74.358  44.734  24.447  0.00  0.00    -0.312 N 
ATOM     16  H   UNL     1      75.112  44.625  21.352  0.00  0.00    +0.000 HD
ATOM     17  H   UNL     1      74.238  45.711  24.471  0.00  0.00    +0.000 HD
ATOM     18  H   UNL     1      74.192  44.197  25.256  0.00  0.00    +0.000 HD
ENDBRANCH  11  12
ENDBRANCH   9  10
BRANCH   7  19
ATOM     19  C   UNL     1      73.601  51.652  20.511  0.00  0.00    +0.086 C 
BRANCH  19  20
ATOM     20  C   UNL     1      75.028  52.150  20.480  0.00  0.00    +0.183 C 
ATOM     21  O   UNL     1      75.567  52.716  21.423  0.00  0.00    -0.290 OA
BRANCH  20  22
ATOM     22  C   UNL     1      75.825  51.917  19.227  0.00  0.00    +0.019 A 
ATOM     23  C   UNL     1      76.712  50.842  19.076  0.00  0.00    -0.050 A 
ATOM     24  C   UNL     1      77.490  50.725  17.917  0.00  0.00    -0.047 A 
ATOM     25  C   UNL     1      77.380  51.677  16.905  0.00  0.00    +0.018 A 
ATOM     26  C   UNL     1      76.471  52.724  17.021  0.00  0.00    -0.047 A 
ATOM     27  C   UNL     1      75.691  52.840  18.178  0.00  0.00    -0.050 A 
ATOM     28 BR   UNL     1      78.492  51.564  15.381  0.00  0.00    -0.050 Br
ENDBRANCH  20  22
ENDBRANCH  19  20
ENDBRANCH   7  19
TORSDOF 5
ENDMDL
