MODEL 1
REMARK VINA RESULT:    -8.061      0.000      0.000
REMARK INTER + INTRA:         -11.218
REMARK INTER:                 -10.417
REMARK INTRA:                  -0.801
REMARK UNBOUND:                -0.801
REMARK  Name = 18a.sdf
REMARK  5 active torsions:
REMARK  status: ('A' for Active; 'I' for Inactive)
REMARK    1  A    between atoms: N_7  and  C_12
REMARK    2  A    between atoms: C_9  and  C_10
REMARK    3  A    between atoms: N_11  and  N_19
REMARK    4  A    between atoms: C_12  and  C_13
REMARK    5  A    between atoms: C_20  and  C_22
REMARK                            x       y       z     vdW  Elec       q    Type
REMARK                         _______ _______ _______ _____ _____    ______ ____
ROOT
ATOM      1  C   UNL     1      74.309  50.488  27.702  0.00  0.00    -0.061 A 
ATOM      2  C   UNL     1      73.619  49.693  28.609  0.00  0.00    -0.060 A 
ATOM      3  C   UNL     1      72.937  48.546  28.189  0.00  0.00    -0.038 A 
ATOM      4  C   UNL     1      72.963  48.212  26.824  0.00  0.00    +0.050 A 
ATOM      5  C   UNL     1      73.700  48.969  25.903  0.00  0.00    +0.009 A 
ATOM      6  C   UNL     1      74.369  50.128  26.353  0.00  0.00    -0.052 A 
ATOM      7  N   UNL     1      72.343  47.201  26.109  0.00  0.00    -0.342 N 
ATOM      8  C   UNL     1      72.742  47.253  24.795  0.00  0.00    +0.015 A 
ATOM      9  C   UNL     1      73.595  48.325  24.631  0.00  0.00    +0.020 A 
ENDROOT
BRANCH   9  10
ATOM     10  C   UNL     1      74.248  48.718  23.398  0.00  0.00    +0.055 C 
ATOM     11  N   UNL     1      73.641  49.516  22.577  0.00  0.00    -0.187 NA
BRANCH  11  12
ATOM     12  N   UNL     1      74.322  49.826  21.432  0.00  0.00    -0.203 N 
ATOM     13  C   UNL     1      74.468  51.156  21.064  0.00  0.00    +0.263 C 
ATOM     14  O   UNL     1      74.041  52.113  21.701  0.00  0.00    -0.268 OA
ATOM     15  H   UNL     1      74.705  49.111  20.873  0.00  0.00    +0.000 HD
BRANCH  13  16
ATOM     16  C   UNL     1      75.243  51.405  19.812  0.00  0.00    +0.038 A 
ATOM     17  C   UNL     1      76.185  50.493  19.317  0.00  0.00    -0.050 A 
ATOM     18  C   UNL     1      76.876  50.781  18.130  0.00  0.00    -0.061 A 
ATOM     19  C   UNL     1      76.623  51.966  17.440  0.00  0.00    -0.062 A 
ATOM     20  C   UNL     1      75.672  52.864  17.919  0.00  0.00    -0.061 A 
ATOM     21  C   UNL     1      74.982  52.582  19.101  0.00  0.00    -0.050 A 
ENDBRANCH  13  16
ENDBRANCH  11  12
ENDBRANCH   9  10
BRANCH   7  22
ATOM     22  C   UNL     1      71.317  46.282  26.605  0.00  0.00    +0.048 C 
BRANCH  22  23
ATOM     23  C   UNL     1      69.926  46.831  26.401  0.00  0.00    -0.028 A 
ATOM     24  C   UNL     1      69.671  48.199  26.568  0.00  0.00    -0.056 A 
ATOM     25  C   UNL     1      68.363  48.685  26.539  0.00  0.00    -0.047 A 
ATOM     26  C   UNL     1      67.305  47.808  26.321  0.00  0.00    +0.018 A 
ATOM     27  C   UNL     1      67.545  46.460  26.069  0.00  0.00    -0.047 A 
ATOM     28  C   UNL     1      68.854  45.972  26.107  0.00  0.00    -0.056 A 
ATOM     29 BR   UNL     1      65.527  48.442  26.423  0.00  0.00    -0.050 Br
ENDBRANCH  22  23
ENDBRANCH   7  22
TORSDOF 5
ENDMDL
