MODEL 1
REMARK VINA RESULT:    -8.384      0.000      0.000
REMARK INTER + INTRA:         -10.905
REMARK INTER:                 -10.345
REMARK INTRA:                  -0.560
REMARK UNBOUND:                -0.560
REMARK  Name = 18d.sdf
REMARK  4 active torsions:
REMARK  status: ('A' for Active; 'I' for Inactive)
REMARK    1  A    between atoms: C_9  and  C_10
REMARK    2  A    between atoms: N_11  and  N_12
REMARK    3  A    between atoms: C_13  and  C_15
REMARK    4  A    between atoms: C_16  and  C_17
REMARK                            x       y       z     vdW  Elec       q    Type
REMARK                         _______ _______ _______ _____ _____    ______ ____
ROOT
ATOM      1  C   UNL     1      74.267  44.008  26.531  0.00  0.00    -0.061 A 
ATOM      2  C   UNL     1      73.211  43.479  27.261  0.00  0.00    -0.060 A 
ATOM      3  C   UNL     1      72.016  44.189  27.411  0.00  0.00    -0.037 A 
ATOM      4  C   UNL     1      71.908  45.461  26.819  0.00  0.00    +0.057 A 
ATOM      5  C   UNL     1      72.957  46.007  26.061  0.00  0.00    +0.009 A 
ATOM      6  C   UNL     1      74.151  45.264  25.925  0.00  0.00    -0.052 A 
ATOM      7  N   UNL     1      70.849  46.372  26.799  0.00  0.00    -0.282 N 
ATOM      8  C   UNL     1      71.260  47.474  26.071  0.00  0.00    +0.023 A 
ATOM      9  C   UNL     1      72.536  47.285  25.583  0.00  0.00    +0.020 A 
ATOM     10  C   UNL     1      69.576  46.236  27.410  0.00  0.00    +0.263 C 
ATOM     11  O   UNL     1      69.502  45.591  28.462  0.00  0.00    -0.267 OA
ENDROOT
BRANCH  10  12
ATOM     12  C   UNL     1      68.354  46.876  26.874  0.00  0.00    +0.040 A 
ATOM     13  C   UNL     1      68.055  48.209  27.190  0.00  0.00    -0.049 A 
ATOM     14  C   UNL     1      66.823  48.744  26.829  0.00  0.00    -0.061 A 
ATOM     15  C   UNL     1      65.913  47.973  26.108  0.00  0.00    -0.062 A 
ATOM     16  C   UNL     1      66.246  46.674  25.714  0.00  0.00    -0.061 A 
ATOM     17  C   UNL     1      67.471  46.125  26.088  0.00  0.00    -0.049 A 
ENDBRANCH  10  12
BRANCH   9  18
ATOM     18  C   UNL     1      73.262  48.238  24.761  0.00  0.00    +0.055 C 
ATOM     19  N   UNL     1      72.604  48.977  23.927  0.00  0.00    -0.187 NA
BRANCH  19  20
ATOM     20  N   UNL     1      73.326  49.859  23.165  0.00  0.00    -0.203 N 
ATOM     21  C   UNL     1      73.600  49.547  21.839  0.00  0.00    +0.263 C 
ATOM     22  O   UNL     1      73.246  48.519  21.263  0.00  0.00    -0.268 OA
ATOM     23  H   UNL     1      73.644  50.705  23.555  0.00  0.00    +0.000 HD
BRANCH  21  24
ATOM     24  C   UNL     1      74.357  50.576  21.071  0.00  0.00    +0.038 A 
ATOM     25  C   UNL     1      74.144  51.949  21.258  0.00  0.00    -0.050 A 
ATOM     26  C   UNL     1      74.861  52.877  20.497  0.00  0.00    -0.061 A 
ATOM     27  C   UNL     1      75.800  52.441  19.561  0.00  0.00    -0.062 A 
ATOM     28  C   UNL     1      76.043  51.078  19.398  0.00  0.00    -0.061 A 
ATOM     29  C   UNL     1      75.327  50.148  20.153  0.00  0.00    -0.050 A 
ENDBRANCH  21  24
ENDBRANCH  19  20
ENDBRANCH   9  18
TORSDOF 4
ENDMDL
