MODEL 1
REMARK VINA RESULT:    -6.935      0.000      0.000
REMARK INTER + INTRA:          -8.792
REMARK INTER:                  -8.557
REMARK INTRA:                  -0.236
REMARK UNBOUND:                -0.236
REMARK  Name = 19.sdf
REMARK  5 active torsions:
REMARK  status: ('A' for Active; 'I' for Inactive)
REMARK    1  A    between atoms: C_9  and  C_10
REMARK    2  A    between atoms: C_10  and  C_11
REMARK    3  A    between atoms: C_11  and  O_13
REMARK    4  A    between atoms: O_13  and  C_14
REMARK    5  A    between atoms: C_14  and  C_15
REMARK                            x       y       z     vdW  Elec       q    Type
REMARK                         _______ _______ _______ _____ _____    ______ ____
ROOT
ATOM      1  C   UNL     1      78.329  50.853  16.863  0.00  0.00    -0.061 A 
ATOM      2  C   UNL     1      78.161  51.928  15.995  0.00  0.00    -0.060 A 
ATOM      3  C   UNL     1      77.144  52.865  16.199  0.00  0.00    -0.038 A 
ATOM      4  C   UNL     1      76.317  52.687  17.313  0.00  0.00    +0.047 A 
ATOM      5  C   UNL     1      76.467  51.632  18.214  0.00  0.00    +0.003 A 
ATOM      6  C   UNL     1      77.494  50.693  17.974  0.00  0.00    -0.052 A 
ATOM      7  N   UNL     1      75.253  53.441  17.749  0.00  0.00    -0.360 N 
ATOM      8  C   UNL     1      74.750  52.922  18.912  0.00  0.00    +0.006 A 
ATOM      9  C   UNL     1      75.477  51.791  19.240  0.00  0.00    -0.012 A 
ATOM     10  H   UNL     1      74.904  54.239  17.291  0.00  0.00    +0.000 HD
ENDROOT
BRANCH   9  11
ATOM     11  C   UNL     1      75.291  50.942  20.458  0.00  0.00    +0.072 C 
BRANCH  11  12
ATOM     12  C   UNL     1      73.985  51.181  21.192  0.00  0.00    +0.312 C 
ATOM     13  O   UNL     1      73.723  52.120  21.932  0.00  0.00    -0.250 OA
BRANCH  12  14
ATOM     14  O   UNL     1      73.138  50.133  20.937  0.00  0.00    -0.465 OA
BRANCH  14  15
ATOM     15  C   UNL     1      73.625  48.825  21.273  0.00  0.00    +0.090 C 
ATOM     16  C   UNL     1      73.710  48.636  22.773  0.00  0.00    -0.031 C 
ENDBRANCH  14  15
ENDBRANCH  12  14
ENDBRANCH  11  12
ENDBRANCH   9  11
TORSDOF 4
ENDMDL
