MODEL 1
REMARK VINA RESULT:    -8.188      0.000      0.000
REMARK INTER + INTRA:          -9.358
REMARK INTER:                  -9.624
REMARK INTRA:                   0.267
REMARK UNBOUND:                 0.267
REMARK  Name = 1c.sdf
REMARK  3 active torsions:
REMARK  status: ('A' for Active; 'I' for Inactive)
REMARK    1  A    between atoms: N_7  and  C_12
REMARK    2  A    between atoms: C_9  and  C_10
REMARK    3  A    between atoms: C_12  and  C_13
REMARK                            x       y       z     vdW  Elec       q    Type
REMARK                         _______ _______ _______ _____ _____    ______ ____
ROOT
ATOM      1  C   UNL     1      79.748  51.618  14.428  0.00  0.00    -0.061 A 
ATOM      2  C   UNL     1      79.846  50.463  15.197  0.00  0.00    -0.060 A 
ATOM      3  C   UNL     1      79.004  50.247  16.298  0.00  0.00    -0.038 A 
ATOM      4  C   UNL     1      78.069  51.240  16.636  0.00  0.00    +0.050 A 
ATOM      5  C   UNL     1      77.913  52.383  15.833  0.00  0.00    +0.010 A 
ATOM      6  C   UNL     1      78.768  52.568  14.724  0.00  0.00    -0.052 A 
ATOM      7  N   UNL     1      77.185  51.374  17.700  0.00  0.00    -0.342 N 
ATOM      8  C   UNL     1      76.421  52.504  17.519  0.00  0.00    +0.016 A 
ATOM      9  C   UNL     1      76.841  53.143  16.372  0.00  0.00    +0.039 A 
ENDROOT
BRANCH   9  10
ATOM     10  C   UNL     1      76.280  54.377  15.848  0.00  0.00    +0.152 C 
ATOM     11  O   UNL     1      76.029  54.563  14.665  0.00  0.00    -0.296 OA
ENDBRANCH   9  10
BRANCH   7  12
ATOM     12  C   UNL     1      77.134  50.581  18.934  0.00  0.00    +0.048 C 
BRANCH  12  13
ATOM     13  C   UNL     1      75.919  50.902  19.771  0.00  0.00    -0.028 A 
ATOM     14  C   UNL     1      75.748  52.192  20.291  0.00  0.00    -0.055 A 
ATOM     15  C   UNL     1      74.756  52.448  21.239  0.00  0.00    -0.043 A 
ATOM     16  C   UNL     1      73.902  51.423  21.641  0.00  0.00    +0.041 A 
ATOM     17  C   UNL     1      73.982  50.166  21.047  0.00  0.00    -0.043 A 
ATOM     18  C   UNL     1      74.987  49.906  20.109  0.00  0.00    -0.055 A 
ATOM     19 CL   UNL     1      72.786  51.697  22.921  0.00  0.00    -0.084 Cl
ENDBRANCH  12  13
ENDBRANCH   7  12
TORSDOF 3
ENDMDL
