MODEL 1
REMARK VINA RESULT:    -8.465      0.000      0.000
REMARK INTER + INTRA:         -12.349
REMARK INTER:                 -11.435
REMARK INTRA:                  -0.914
REMARK UNBOUND:                -0.914
REMARK  Name = 22c.sdf
REMARK  7 active torsions:
REMARK  status: ('A' for Active; 'I' for Inactive)
REMARK    1  A    between atoms: N_7  and  C_12
REMARK    2  A    between atoms: C_9  and  C_10
REMARK    3  A    between atoms: N_11  and  N_19
REMARK    4  A    between atoms: C_12  and  C_13
REMARK    5  A    between atoms: C_20  and  C_22
REMARK    6  A    between atoms: C_25  and  O_29
REMARK    7  A    between atoms: O_29  and  C_30
REMARK                            x       y       z     vdW  Elec       q    Type
REMARK                         _______ _______ _______ _____ _____    ______ ____
ROOT
ATOM      1  C   UNL     1      72.336  51.258  26.027  0.00  0.00    -0.061 A 
ATOM      2  C   UNL     1      71.960  50.445  27.087  0.00  0.00    -0.060 A 
ATOM      3  C   UNL     1      72.165  49.058  27.047  0.00  0.00    -0.038 A 
ATOM      4  C   UNL     1      72.750  48.501  25.896  0.00  0.00    +0.050 A 
ATOM      5  C   UNL     1      73.195  49.314  24.842  0.00  0.00    +0.009 A 
ATOM      6  C   UNL     1      72.971  50.708  24.911  0.00  0.00    -0.052 A 
ATOM      7  N   UNL     1      73.000  47.189  25.524  0.00  0.00    -0.342 N 
ATOM      8  C   UNL     1      73.672  47.173  24.325  0.00  0.00    +0.015 A 
ATOM      9  C   UNL     1      73.833  48.471  23.881  0.00  0.00    +0.020 A 
ENDROOT
BRANCH   9  10
ATOM     10  C   UNL     1      74.513  48.882  22.669  0.00  0.00    +0.055 C 
ATOM     11  N   UNL     1      73.844  49.418  21.703  0.00  0.00    -0.187 NA
BRANCH  11  12
ATOM     12  N   UNL     1      74.564  49.766  20.587  0.00  0.00    -0.203 N 
ATOM     13  C   UNL     1      74.988  51.076  20.434  0.00  0.00    +0.263 C 
ATOM     14  O   UNL     1      74.788  51.985  21.242  0.00  0.00    -0.268 OA
ATOM     15  H   UNL     1      74.776  49.091  19.903  0.00  0.00    +0.000 HD
BRANCH  13  16
ATOM     16  C   UNL     1      75.783  51.375  19.203  0.00  0.00    +0.039 A 
ATOM     17  C   UNL     1      76.807  50.542  18.742  0.00  0.00    -0.046 A 
ATOM     18  C   UNL     1      77.529  50.894  17.594  0.00  0.00    -0.019 A 
ATOM     19  C   UNL     1      77.222  52.059  16.881  0.00  0.00    +0.120 A 
ATOM     20  C   UNL     1      76.186  52.876  17.323  0.00  0.00    -0.019 A 
ATOM     21  C   UNL     1      75.467  52.533  18.476  0.00  0.00    -0.046 A 
BRANCH  19  22
ATOM     22  O   UNL     1      78.039  52.319  15.816  0.00  0.00    -0.495 OA
ATOM     23  C   UNL     1      78.999  51.320  15.491  0.00  0.00    +0.079 C 
ENDBRANCH  19  22
ENDBRANCH  13  16
ENDBRANCH  11  12
ENDBRANCH   9  10
BRANCH   7  24
ATOM     24  C   UNL     1      72.514  45.973  26.184  0.00  0.00    +0.048 C 
BRANCH  24  25
ATOM     25  C   UNL     1      73.531  45.405  27.145  0.00  0.00    -0.028 A 
ATOM     26  C   UNL     1      73.817  46.069  28.346  0.00  0.00    -0.055 A 
ATOM     27  C   UNL     1      74.883  45.657  29.148  0.00  0.00    -0.043 A 
ATOM     28  C   UNL     1      75.649  44.558  28.769  0.00  0.00    +0.041 A 
ATOM     29  C   UNL     1      75.314  43.824  27.633  0.00  0.00    -0.043 A 
ATOM     30  C   UNL     1      74.256  44.246  26.824  0.00  0.00    -0.055 A 
ATOM     31 CL   UNL     1      77.043  44.134  29.684  0.00  0.00    -0.084 Cl
ENDBRANCH  24  25
ENDBRANCH   7  24
TORSDOF 6
ENDMDL
