MODEL 1
REMARK VINA RESULT:    -8.391      0.000      0.000
REMARK INTER + INTRA:         -11.793
REMARK INTER:                 -11.088
REMARK INTRA:                  -0.704
REMARK UNBOUND:                -0.704
REMARK  Name = 27a.sdf
REMARK  6 active torsions:
REMARK  status: ('A' for Active; 'I' for Inactive)
REMARK    1  A    between atoms: N_7  and  C_10
REMARK    2  A    between atoms: C_9  and  C_18
REMARK    3  A    between atoms: C_10  and  C_11
REMARK    4  A    between atoms: N_19  and  N_20
REMARK    5  A    between atoms: C_21  and  C_23
REMARK    6  A    between atoms: C_26  and  N_29
REMARK                            x       y       z     vdW  Elec       q    Type
REMARK                         _______ _______ _______ _____ _____    ______ ____
ROOT
ATOM      1  C   UNL     1      72.277  51.389  26.170  0.00  0.00    -0.061 A 
ATOM      2  C   UNL     1      71.820  50.600  27.219  0.00  0.00    -0.060 A 
ATOM      3  C   UNL     1      71.948  49.207  27.179  0.00  0.00    -0.038 A 
ATOM      4  C   UNL     1      72.557  48.622  26.057  0.00  0.00    +0.050 A 
ATOM      5  C   UNL     1      73.067  49.401  25.009  0.00  0.00    +0.009 A 
ATOM      6  C   UNL     1      72.907  50.804  25.068  0.00  0.00    -0.052 A 
ATOM      7  N   UNL     1      72.779  47.300  25.718  0.00  0.00    -0.342 N 
ATOM      8  C   UNL     1      73.474  47.235  24.537  0.00  0.00    +0.015 A 
ATOM      9  C   UNL     1      73.682  48.516  24.069  0.00  0.00    +0.020 A 
ENDROOT
BRANCH   9  10
ATOM     10  C   UNL     1      74.389  48.880  22.857  0.00  0.00    +0.055 C 
ATOM     11  N   UNL     1      73.818  49.640  21.980  0.00  0.00    -0.187 NA
BRANCH  11  12
ATOM     12  N   UNL     1      74.551  49.921  20.863  0.00  0.00    -0.203 N 
ATOM     13  C   UNL     1      74.913  51.237  20.599  0.00  0.00    +0.263 C 
ATOM     14  O   UNL     1      74.638  52.206  21.304  0.00  0.00    -0.268 OA
ATOM     15  H   UNL     1      74.822  49.199  20.250  0.00  0.00    +0.000 HD
BRANCH  13  16
ATOM     16  C   UNL     1      75.731  51.446  19.368  0.00  0.00    +0.038 A 
ATOM     17  C   UNL     1      76.771  50.585  18.992  0.00  0.00    -0.048 A 
ATOM     18  C   UNL     1      77.502  50.837  17.824  0.00  0.00    -0.040 A 
ATOM     19  C   UNL     1      77.233  51.960  17.035  0.00  0.00    +0.025 A 
ATOM     20  C   UNL     1      76.141  52.762  17.367  0.00  0.00    -0.040 A 
ATOM     21  C   UNL     1      75.405  52.521  18.533  0.00  0.00    -0.048 A 
BRANCH  19  22
ATOM     22  N   UNL     1      77.887  52.134  15.811  0.00  0.00    -0.358 N 
ATOM     23  H   UNL     1      77.386  52.049  14.968  0.00  0.00    +0.000 HD
ATOM     24  H   UNL     1      78.849  52.343  15.792  0.00  0.00    +0.000 HD
ENDBRANCH  19  22
ENDBRANCH  13  16
ENDBRANCH  11  12
ENDBRANCH   9  10
BRANCH   7  25
ATOM     25  C   UNL     1      72.262  46.127  26.423  0.00  0.00    +0.048 C 
BRANCH  25  26
ATOM     26  C   UNL     1      70.767  46.201  26.612  0.00  0.00    -0.028 A 
ATOM     27  C   UNL     1      69.932  46.591  25.555  0.00  0.00    -0.056 A 
ATOM     28  C   UNL     1      68.563  46.773  25.761  0.00  0.00    -0.047 A 
ATOM     29  C   UNL     1      68.019  46.551  27.023  0.00  0.00    +0.018 A 
ATOM     30  C   UNL     1      68.823  46.107  28.071  0.00  0.00    -0.047 A 
ATOM     31  C   UNL     1      70.194  45.931  27.864  0.00  0.00    -0.056 A 
ATOM     32 BR   UNL     1      66.185  46.891  27.325  0.00  0.00    -0.050 Br
ENDBRANCH  25  26
ENDBRANCH   7  25
TORSDOF 6
ENDMDL
