MODEL 1
REMARK VINA RESULT:    -7.118      0.000      0.000
REMARK INTER + INTRA:         -10.207
REMARK INTER:                  -9.406
REMARK INTRA:                  -0.801
REMARK UNBOUND:                -0.801
REMARK  Name = 3a.sdf
REMARK  6 active torsions:
REMARK  status: ('A' for Active; 'I' for Inactive)
REMARK    1  A    between atoms: N_7  and  C_12
REMARK    2  A    between atoms: C_9  and  C_10
REMARK    3  A    between atoms: C_10  and  CA_11
REMARK    4  A    between atoms: CA_11  and  C_20
REMARK    5  A    between atoms: CA_11  and  N_23
REMARK    6  A    between atoms: C_12  and  C_13
REMARK                            x       y       z     vdW  Elec       q    Type
REMARK                         _______ _______ _______ _____ _____    ______ ____
ROOT
ATOM      1  C   UNL     1      75.521  50.666  28.138  0.00  0.00    -0.061 A 
ATOM      2  C   UNL     1      74.872  51.708  27.486  0.00  0.00    -0.060 A 
ATOM      3  C   UNL     1      73.955  51.454  26.462  0.00  0.00    -0.038 A 
ATOM      4  C   UNL     1      73.688  50.118  26.119  0.00  0.00    +0.050 A 
ATOM      5  C   UNL     1      74.302  49.052  26.788  0.00  0.00    +0.003 A 
ATOM      6  C   UNL     1      75.243  49.339  27.799  0.00  0.00    -0.052 A 
ATOM      7  N   UNL     1      72.893  49.563  25.137  0.00  0.00    -0.342 N 
ATOM      8  C   UNL     1      72.854  48.198  25.285  0.00  0.00    +0.009 A 
ATOM      9  C   UNL     1      73.797  47.834  26.225  0.00  0.00    -0.020 A 
ENDROOT
BRANCH   9  10
ATOM     10  C   UNL     1      74.225  46.446  26.594  0.00  0.00    -0.000 C 
BRANCH  10  11
ATOM     11  CA  UNL     1      73.667  45.316  25.709  0.00  0.00    +0.107 C 
BRANCH  11  12
ATOM     12  N   UNL     1      72.517  44.677  26.403  0.00  0.00    -0.318 N 
ATOM     13  H1  UNL     1      71.659  45.177  26.170  0.00  0.00    +0.000 HD
ATOM     14  H2  UNL     1      72.668  44.710  27.411  0.00  0.00    +0.000 HD
ATOM     15  H3  UNL     1      72.436  43.705  26.103  0.00  0.00    +0.000 HD
ENDBRANCH  11  12
BRANCH  11  16
ATOM     16  C   UNL     1      74.752  44.278  25.327  0.00  0.00    +0.322 C 
ATOM     17  O   UNL     1      75.377  43.729  26.398  0.00  0.00    -0.480 OA
ATOM     18  OXT UNL     1      75.025  43.920  24.187  0.00  0.00    -0.249 OA
ENDBRANCH  11  16
ENDBRANCH  10  11
ENDBRANCH   9  10
BRANCH   7  19
ATOM     19  C   UNL     1      72.307  50.259  23.994  0.00  0.00    +0.048 C 
BRANCH  19  20
ATOM     20  C   UNL     1      73.313  50.462  22.890  0.00  0.00    -0.028 A 
ATOM     21  C   UNL     1      73.537  51.742  22.365  0.00  0.00    -0.056 A 
ATOM     22  C   UNL     1      74.368  51.920  21.259  0.00  0.00    -0.047 A 
ATOM     23  C   UNL     1      74.996  50.818  20.684  0.00  0.00    +0.018 A 
ATOM     24  C   UNL     1      74.834  49.547  21.231  0.00  0.00    -0.047 A 
ATOM     25  C   UNL     1      73.996  49.369  22.333  0.00  0.00    -0.056 A 
ATOM     26 BR   UNL     1      76.046  51.046  19.131  0.00  0.00    -0.050 Br
ENDBRANCH  19  20
ENDBRANCH   7  19
TORSDOF 6
ENDMDL
