MODEL 1
REMARK VINA RESULT:    -7.494      0.000      0.000
REMARK INTER + INTRA:         -10.105
REMARK INTER:                  -9.684
REMARK INTRA:                  -0.421
REMARK UNBOUND:                -0.421
REMARK  Name = 5a.sdf
REMARK  6 active torsions:
REMARK  status: ('A' for Active; 'I' for Inactive)
REMARK    1  A    between atoms: N_7  and  C_12
REMARK    2  A    between atoms: C_9  and  C_10
REMARK    3  A    between atoms: C_11  and  C_20
REMARK    4  A    between atoms: C_12  and  C_13
REMARK    5  A    between atoms: C_20  and  O_21
REMARK    6  A    between atoms: O_21  and  C_23
REMARK                            x       y       z     vdW  Elec       q    Type
REMARK                         _______ _______ _______ _____ _____    ______ ____
ROOT
ATOM      1  C   UNL     1      75.729  50.341  28.236  0.00  0.00    -0.061 A 
ATOM      2  C   UNL     1      75.135  51.512  27.772  0.00  0.00    -0.060 A 
ATOM      3  C   UNL     1      74.168  51.476  26.754  0.00  0.00    -0.038 A 
ATOM      4  C   UNL     1      73.823  50.230  26.189  0.00  0.00    +0.050 A 
ATOM      5  C   UNL     1      74.367  49.036  26.693  0.00  0.00    +0.007 A 
ATOM      6  C   UNL     1      75.334  49.107  27.720  0.00  0.00    -0.052 A 
ATOM      7  N   UNL     1      72.996  49.875  25.133  0.00  0.00    -0.342 N 
ATOM      8  C   UNL     1      72.936  48.493  25.039  0.00  0.00    +0.013 A 
ATOM      9  C   UNL     1      73.764  47.942  25.996  0.00  0.00    +0.000 A 
ENDROOT
BRANCH   9  10
ATOM     10  C   UNL     1      74.002  46.545  26.271  0.00  0.00    -0.046 C 
ATOM     11  C   UNL     1      74.092  45.550  25.376  0.00  0.00    +0.023 C 
BRANCH  11  12
ATOM     12  C   UNL     1      74.307  44.096  25.650  0.00  0.00    +0.332 C 
ATOM     13  O   UNL     1      73.656  43.518  26.498  0.00  0.00    -0.246 OA
BRANCH  12  14
ATOM     14  O   UNL     1      75.276  43.531  24.883  0.00  0.00    -0.465 OA
ATOM     15  C   UNL     1      75.158  43.804  23.479  0.00  0.00    +0.082 C 
ENDBRANCH  12  14
ENDBRANCH  11  12
ENDBRANCH   9  10
BRANCH   7  16
ATOM     16  C   UNL     1      72.390  50.779  24.145  0.00  0.00    +0.048 C 
BRANCH  16  17
ATOM     17  C   UNL     1      73.142  50.780  22.835  0.00  0.00    -0.028 A 
ATOM     18  C   UNL     1      73.546  49.571  22.251  0.00  0.00    -0.056 A 
ATOM     19  C   UNL     1      74.428  49.568  21.169  0.00  0.00    -0.047 A 
ATOM     20  C   UNL     1      74.879  50.775  20.642  0.00  0.00    +0.018 A 
ATOM     21  C   UNL     1      74.394  51.984  21.134  0.00  0.00    -0.047 A 
ATOM     22  C   UNL     1      73.523  51.986  22.226  0.00  0.00    -0.056 A 
ATOM     23 BR   UNL     1      76.214  50.773  19.304  0.00  0.00    -0.050 Br
ENDBRANCH  16  17
ENDBRANCH   7  16
TORSDOF 5
ENDMDL
