MODEL 1
REMARK VINA RESULT:    -7.307      0.000      0.000
REMARK INTER + INTRA:          -8.887
REMARK INTER:                  -9.016
REMARK INTRA:                   0.128
REMARK UNBOUND:                 0.128
REMARK  Name = 7d.sdf
REMARK  5 active torsions:
REMARK  status: ('A' for Active; 'I' for Inactive)
REMARK    1  A    between atoms: C_9  and  C_10
REMARK    2  A    between atoms: C_10  and  C_11
REMARK    3  A    between atoms: C_11  and  O_20
REMARK    4  A    between atoms: C_12  and  C_13
REMARK    5  A    between atoms: O_20  and  C_22
REMARK                            x       y       z     vdW  Elec       q    Type
REMARK                         _______ _______ _______ _____ _____    ______ ____
ROOT
ATOM      1  C   UNL     1      73.321  46.821  26.899  0.00  0.00    -0.061 A 
ATOM      2  C   UNL     1      73.656  46.218  25.693  0.00  0.00    -0.060 A 
ATOM      3  C   UNL     1      73.695  46.958  24.507  0.00  0.00    -0.037 A 
ATOM      4  C   UNL     1      73.381  48.329  24.558  0.00  0.00    +0.057 A 
ATOM      5  C   UNL     1      73.052  48.958  25.768  0.00  0.00    +0.004 A 
ATOM      6  C   UNL     1      73.021  48.185  26.949  0.00  0.00    -0.052 A 
ATOM      7  N   UNL     1      73.399  49.307  23.564  0.00  0.00    -0.283 N 
ATOM      8  C   UNL     1      72.965  50.492  24.133  0.00  0.00    +0.018 A 
ATOM      9  C   UNL     1      72.818  50.339  25.494  0.00  0.00    -0.011 A 
ATOM     10  C   UNL     1      73.801  49.165  22.213  0.00  0.00    +0.263 C 
ATOM     11  O   UNL     1      73.757  48.052  21.698  0.00  0.00    -0.267 OA
ENDROOT
BRANCH  10  12
ATOM     12  C   UNL     1      74.271  50.319  21.401  0.00  0.00    +0.040 A 
ATOM     13  C   UNL     1      75.252  50.126  20.418  0.00  0.00    -0.049 A 
ATOM     14  C   UNL     1      75.744  51.214  19.698  0.00  0.00    -0.061 A 
ATOM     15  C   UNL     1      75.238  52.489  19.939  0.00  0.00    -0.062 A 
ATOM     16  C   UNL     1      74.225  52.677  20.883  0.00  0.00    -0.061 A 
ATOM     17  C   UNL     1      73.730  51.589  21.615  0.00  0.00    -0.049 A 
ENDBRANCH  10  12
BRANCH   9  18
ATOM     18  C   UNL     1      72.467  51.428  26.461  0.00  0.00    +0.072 C 
BRANCH  18  19
ATOM     19  C   UNL     1      73.460  51.543  27.608  0.00  0.00    +0.311 C 
ATOM     20  O   UNL     1      73.234  51.328  28.792  0.00  0.00    -0.250 OA
BRANCH  19  21
ATOM     21  O   UNL     1      74.679  51.914  27.112  0.00  0.00    -0.468 OA
ATOM     22  C   UNL     1      75.782  51.339  27.815  0.00  0.00    +0.082 C 
ENDBRANCH  19  21
ENDBRANCH  18  19
ENDBRANCH   9  18
TORSDOF 4
ENDMDL
