MODEL 1
REMARK VINA RESULT:    -9.098      0.000      0.000
REMARK INTER + INTRA:         -10.981
REMARK INTER:                 -10.693
REMARK INTRA:                  -0.288
REMARK UNBOUND:                -0.288
REMARK  Name = 8.sdf
REMARK  3 active torsions:
REMARK  status: ('A' for Active; 'I' for Inactive)
REMARK    1  A    between atoms: C_9  and  C_10
REMARK    2  A    between atoms: N_11  and  N_12
REMARK    3  A    between atoms: C_13  and  C_15
REMARK                            x       y       z     vdW  Elec       q    Type
REMARK                         _______ _______ _______ _____ _____    ______ ____
ROOT
ATOM      1  C   UNL     1      76.686  50.766  18.434  0.00  0.00    +0.055 C 
ATOM      2  N   UNL     1      75.881  51.300  19.293  0.00  0.00    -0.187 NA
ENDROOT
BRANCH   1  11
ATOM      3  C   UNL     1      80.090  50.279  15.223  0.00  0.00    -0.061 A 
ATOM      4  C   UNL     1      80.164  51.381  14.375  0.00  0.00    -0.060 A 
ATOM      5  C   UNL     1      79.301  52.468  14.535  0.00  0.00    -0.038 A 
ATOM      6  C   UNL     1      78.360  52.403  15.569  0.00  0.00    +0.047 A 
ATOM      7  C   UNL     1      78.255  51.313  16.437  0.00  0.00    +0.008 A 
ATOM      8  C   UNL     1      79.145  50.232  16.257  0.00  0.00    -0.052 A 
ATOM      9  N   UNL     1      77.400  53.315  15.943  0.00  0.00    -0.360 N 
ATOM     10  C   UNL     1      76.690  52.838  17.006  0.00  0.00    +0.011 A 
ATOM     11  C   UNL     1      77.187  51.593  17.351  0.00  0.00    +0.020 A 
ATOM     12  H   UNL     1      77.249  54.185  15.508  0.00  0.00    +0.000 HD
ENDBRANCH   1  11
BRANCH   2  13
ATOM     13  N   UNL     1      75.410  50.512  20.303  0.00  0.00    -0.203 N 
ATOM     14  C   UNL     1      74.356  50.993  21.071  0.00  0.00    +0.263 C 
ATOM     15  O   UNL     1      73.801  52.076  20.900  0.00  0.00    -0.268 OA
ATOM     16  H   UNL     1      75.806  49.629  20.483  0.00  0.00    +0.000 HD
BRANCH  14  17
ATOM     17  C   UNL     1      73.859  50.108  22.163  0.00  0.00    +0.038 A 
ATOM     18  C   UNL     1      74.158  48.742  22.224  0.00  0.00    -0.049 A 
ATOM     19  C   UNL     1      73.703  47.974  23.304  0.00  0.00    -0.047 A 
ATOM     20  C   UNL     1      72.957  48.571  24.320  0.00  0.00    +0.018 A 
ATOM     21  C   UNL     1      72.659  49.931  24.273  0.00  0.00    -0.047 A 
ATOM     22  C   UNL     1      73.115  50.698  23.198  0.00  0.00    -0.049 A 
ATOM     23 BR   UNL     1      72.365  47.533  25.784  0.00  0.00    -0.050 Br
ENDBRANCH  14  17
ENDBRANCH   2  13
TORSDOF 3
ENDMDL
