MODEL 1
REMARK VINA RESULT:    -6.785      0.000      0.000
REMARK INTER + INTRA:          -8.051
REMARK INTER:                  -7.578
REMARK INTRA:                  -0.473
REMARK UNBOUND:                -0.473
REMARK  Name = 0b.sdf
REMARK  2 active torsions:
REMARK  status: ('A' for Active; 'I' for Inactive)
REMARK    1  A    between atoms: N_7  and  C_10
REMARK    2  A    between atoms: C_10  and  C_11
REMARK                            x       y       z     vdW  Elec       q    Type
REMARK                         _______ _______ _______ _____ _____    ______ ____
ROOT
ATOM      1  C   UNL     1     -17.019 -13.836  21.239  0.00  0.00    -0.061 A 
ATOM      2  C   UNL     1     -16.188 -14.354  20.250  0.00  0.00    -0.060 A 
ATOM      3  C   UNL     1     -16.365 -14.009  18.906  0.00  0.00    -0.038 A 
ATOM      4  C   UNL     1     -17.401 -13.117  18.579  0.00  0.00    +0.049 A 
ATOM      5  C   UNL     1     -18.229 -12.565  19.564  0.00  0.00    -0.000 A 
ATOM      6  C   UNL     1     -18.039 -12.939  20.910  0.00  0.00    -0.053 A 
ATOM      7  N   UNL     1     -17.840 -12.621  17.365  0.00  0.00    -0.342 N 
ATOM      8  C   UNL     1     -18.878 -11.742  17.565  0.00  0.00    +0.006 A 
ATOM      9  C   UNL     1     -19.139 -11.692  18.914  0.00  0.00    -0.036 A 
ENDROOT
BRANCH   7  10
ATOM     10  C   UNL     1     -17.390 -13.056  16.047  0.00  0.00    +0.048 C 
BRANCH  10  11
ATOM     11  C   UNL     1     -16.785 -11.935  15.245  0.00  0.00    -0.025 A 
ATOM     12  C   UNL     1     -17.404 -11.468  14.082  0.00  0.00    -0.039 A 
ATOM     13  C   UNL     1     -16.807 -10.437  13.375  0.00  0.00    +0.028 A 
ATOM     14  N   UNL     1     -15.656  -9.841  13.746  0.00  0.00    -0.263 NA
ATOM     15  C   UNL     1     -15.069 -10.304  14.870  0.00  0.00    +0.028 A 
ATOM     16  C   UNL     1     -15.586 -11.331  15.643  0.00  0.00    -0.039 A 
ENDBRANCH  10  11
ENDBRANCH   7  10
TORSDOF 2
ENDMDL
MODEL 2
REMARK VINA RESULT:    -6.672      1.167      2.386
REMARK INTER + INTRA:          -7.924
REMARK INTER:                  -7.701
REMARK INTRA:                  -0.223
REMARK UNBOUND:                -0.473
REMARK  Name = 0b.sdf
REMARK  2 active torsions:
REMARK  status: ('A' for Active; 'I' for Inactive)
REMARK    1  A    between atoms: N_7  and  C_10
REMARK    2  A    between atoms: C_10  and  C_11
REMARK                            x       y       z     vdW  Elec       q    Type
REMARK                         _______ _______ _______ _____ _____    ______ ____
ROOT
ATOM      1  C   UNL     1     -18.339 -13.257  22.220  0.00  0.00    -0.061 A 
ATOM      2  C   UNL     1     -19.285 -12.609  21.434  0.00  0.00    -0.060 A 
ATOM      3  C   UNL     1     -19.123 -12.505  20.048  0.00  0.00    -0.038 A 
ATOM      4  C   UNL     1     -17.980 -13.080  19.467  0.00  0.00    +0.049 A 
ATOM      5  C   UNL     1     -17.031 -13.760  20.239  0.00  0.00    -0.000 A 
ATOM      6  C   UNL     1     -17.211 -13.840  21.635  0.00  0.00    -0.053 A 
ATOM      7  N   UNL     1     -17.530 -13.114  18.160  0.00  0.00    -0.342 N 
ATOM      8  C   UNL     1     -16.362 -13.835  18.085  0.00  0.00    +0.006 A 
ATOM      9  C   UNL     1     -16.031 -14.242  19.356  0.00  0.00    -0.036 A 
ENDROOT
BRANCH   7  10
ATOM     10  C   UNL     1     -18.105 -12.384  17.034  0.00  0.00    +0.048 C 
BRANCH  10  11
ATOM     11  C   UNL     1     -17.079 -12.038  15.988  0.00  0.00    -0.025 A 
ATOM     12  C   UNL     1     -16.208 -10.959  16.166  0.00  0.00    -0.039 A 
ATOM     13  C   UNL     1     -15.285 -10.676  15.173  0.00  0.00    +0.028 A 
ATOM     14  N   UNL     1     -15.165 -11.389  14.034  0.00  0.00    -0.263 NA
ATOM     15  C   UNL     1     -16.014 -12.425  13.876  0.00  0.00    +0.028 A 
ATOM     16  C   UNL     1     -16.973 -12.786  14.810  0.00  0.00    -0.039 A 
ENDBRANCH  10  11
ENDBRANCH   7  10
TORSDOF 2
ENDMDL
MODEL 3
REMARK VINA RESULT:    -6.484      3.073      4.933
REMARK INTER + INTRA:          -7.715
REMARK INTER:                  -7.232
REMARK INTRA:                  -0.483
REMARK UNBOUND:                -0.473
REMARK  Name = 0b.sdf
REMARK  2 active torsions:
REMARK  status: ('A' for Active; 'I' for Inactive)
REMARK    1  A    between atoms: N_7  and  C_10
REMARK    2  A    between atoms: C_10  and  C_11
REMARK                            x       y       z     vdW  Elec       q    Type
REMARK                         _______ _______ _______ _____ _____    ______ ____
ROOT
ATOM      1  C   UNL     1     -16.694 -12.033  17.527  0.00  0.00    -0.061 A 
ATOM      2  C   UNL     1     -17.483 -12.898  16.777  0.00  0.00    -0.060 A 
ATOM      3  C   UNL     1     -17.496 -12.835  15.379  0.00  0.00    -0.038 A 
ATOM      4  C   UNL     1     -16.683 -11.877  14.750  0.00  0.00    +0.049 A 
ATOM      5  C   UNL     1     -15.861 -11.017  15.487  0.00  0.00    -0.000 A 
ATOM      6  C   UNL     1     -15.876 -11.092  16.895  0.00  0.00    -0.053 A 
ATOM      7  N   UNL     1     -16.507 -11.552  13.417  0.00  0.00    -0.342 N 
ATOM      8  C   UNL     1     -15.567 -10.556  13.298  0.00  0.00    +0.006 A 
ATOM      9  C   UNL     1     -15.155 -10.205  14.562  0.00  0.00    -0.036 A 
ENDROOT
BRANCH   7  10
ATOM     10  C   UNL     1     -17.289 -12.066  12.297  0.00  0.00    +0.048 C 
BRANCH  10  11
ATOM     11  C   UNL     1     -16.550 -13.117  11.513  0.00  0.00    -0.025 A 
ATOM     12  C   UNL     1     -16.157 -14.318  12.112  0.00  0.00    -0.039 A 
ATOM     13  C   UNL     1     -15.475 -15.253  11.351  0.00  0.00    +0.028 A 
ATOM     14  N   UNL     1     -15.168 -15.080  10.049  0.00  0.00    -0.263 NA
ATOM     15  C   UNL     1     -15.551 -13.916   9.485  0.00  0.00    +0.028 A 
ATOM     16  C   UNL     1     -16.235 -12.919  10.163  0.00  0.00    -0.039 A 
ENDBRANCH  10  11
ENDBRANCH   7  10
TORSDOF 2
ENDMDL
