MODEL 1
REMARK VINA RESULT:    -8.785      0.000      0.000
REMARK INTER + INTRA:         -11.815
REMARK INTER:                 -11.353
REMARK INTRA:                  -0.462
REMARK UNBOUND:                -0.462
REMARK  Name = 15d.sdf
REMARK  5 active torsions:
REMARK  status: ('A' for Active; 'I' for Inactive)
REMARK    1  A    between atoms: C_9  and  C_10
REMARK    2  A    between atoms: C_10  and  O_11
REMARK    3  A    between atoms: O_11  and  C_12
REMARK    4  A    between atoms: C_12  and  C_13
REMARK    5  A    between atoms: C_15  and  C_16
REMARK                            x       y       z     vdW  Elec       q    Type
REMARK                         _______ _______ _______ _____ _____    ______ ____
ROOT
ATOM      1  C   UNL     1     -19.818  -9.363  15.952  0.00  0.00    -0.061 A 
ATOM      2  C   UNL     1     -19.967  -9.165  14.587  0.00  0.00    -0.060 A 
ATOM      3  C   UNL     1     -19.099  -9.773  13.674  0.00  0.00    -0.037 A 
ATOM      4  C   UNL     1     -18.063 -10.587  14.169  0.00  0.00    +0.057 A 
ATOM      5  C   UNL     1     -17.900 -10.800  15.546  0.00  0.00    +0.007 A 
ATOM      6  C   UNL     1     -18.793 -10.178  16.441  0.00  0.00    -0.052 A 
ATOM      7  N   UNL     1     -17.108 -11.357  13.503  0.00  0.00    -0.283 N 
ATOM      8  C   UNL     1     -16.315 -11.969  14.465  0.00  0.00    +0.020 A 
ATOM      9  C   UNL     1     -16.789 -11.677  15.726  0.00  0.00    +0.015 A 
ATOM     10  C   UNL     1     -16.966 -11.525  12.102  0.00  0.00    +0.263 C 
ATOM     11  O   UNL     1     -17.406 -10.651  11.360  0.00  0.00    -0.267 OA
ENDROOT
BRANCH  10  12
ATOM     12  C   UNL     1     -16.315 -12.716  11.494  0.00  0.00    +0.040 A 
ATOM     13  C   UNL     1     -15.523 -12.575  10.346  0.00  0.00    -0.049 A 
ATOM     14  C   UNL     1     -14.963 -13.698   9.741  0.00  0.00    -0.061 A 
ATOM     15  C   UNL     1     -15.163 -14.959  10.299  0.00  0.00    -0.062 A 
ATOM     16  C   UNL     1     -15.899 -15.095  11.478  0.00  0.00    -0.061 A 
ATOM     17  C   UNL     1     -16.470 -13.974  12.084  0.00  0.00    -0.049 A 
ENDBRANCH  10  12
BRANCH   9  18
ATOM     18  C   UNL     1     -16.262 -12.210  17.024  0.00  0.00    +0.120 C 
BRANCH  18  19
ATOM     19  O   UNL     1     -16.999 -13.362  17.466  0.00  0.00    -0.456 OA
BRANCH  19  20
ATOM     20  C   UNL     1     -16.539 -13.968  18.584  0.00  0.00    +0.339 C 
ATOM     21  O   UNL     1     -15.574 -14.710  18.659  0.00  0.00    -0.245 OA
BRANCH  20  22
ATOM     22  C   UNL     1     -17.389 -13.629  19.760  0.00  0.00    +0.059 A 
ATOM     23  C   UNL     1     -17.021 -14.138  21.015  0.00  0.00    -0.048 A 
ATOM     24  C   UNL     1     -17.799 -13.871  22.143  0.00  0.00    -0.061 A 
ATOM     25  C   UNL     1     -18.946 -13.087  22.027  0.00  0.00    -0.062 A 
ATOM     26  C   UNL     1     -19.310 -12.561  20.788  0.00  0.00    -0.061 A 
ATOM     27  C   UNL     1     -18.535 -12.830  19.655  0.00  0.00    -0.048 A 
ENDBRANCH  20  22
ENDBRANCH  19  20
ENDBRANCH  18  19
ENDBRANCH   9  18
TORSDOF 5
ENDMDL
MODEL 2
REMARK VINA RESULT:    -8.779      1.798      7.143
REMARK INTER + INTRA:         -11.807
REMARK INTER:                 -10.960
REMARK INTRA:                  -0.847
REMARK UNBOUND:                -0.462
REMARK  Name = 15d.sdf
REMARK  5 active torsions:
REMARK  status: ('A' for Active; 'I' for Inactive)
REMARK    1  A    between atoms: C_9  and  C_10
REMARK    2  A    between atoms: C_10  and  O_11
REMARK    3  A    between atoms: O_11  and  C_12
REMARK    4  A    between atoms: C_12  and  C_13
REMARK    5  A    between atoms: C_15  and  C_16
REMARK                            x       y       z     vdW  Elec       q    Type
REMARK                         _______ _______ _______ _____ _____    ______ ____
ROOT
ATOM      1  C   UNL     1     -18.603  -8.658  13.407  0.00  0.00    -0.061 A 
ATOM      2  C   UNL     1     -19.690  -9.015  14.192  0.00  0.00    -0.060 A 
ATOM      3  C   UNL     1     -19.565  -9.980  15.197  0.00  0.00    -0.037 A 
ATOM      4  C   UNL     1     -18.311 -10.589  15.394  0.00  0.00    +0.057 A 
ATOM      5  C   UNL     1     -17.201 -10.237  14.611  0.00  0.00    +0.007 A 
ATOM      6  C   UNL     1     -17.357  -9.259  13.610  0.00  0.00    -0.052 A 
ATOM      7  N   UNL     1     -17.884 -11.517  16.345  0.00  0.00    -0.283 N 
ATOM      8  C   UNL     1     -16.546 -11.792  16.095  0.00  0.00    +0.020 A 
ATOM      9  C   UNL     1     -16.085 -11.005  15.061  0.00  0.00    +0.015 A 
ATOM     10  C   UNL     1     -18.647 -12.072  17.403  0.00  0.00    +0.263 C 
ATOM     11  O   UNL     1     -19.869 -12.105  17.291  0.00  0.00    -0.267 OA
ENDROOT
BRANCH  10  12
ATOM     12  C   UNL     1     -18.031 -12.609  18.646  0.00  0.00    +0.040 A 
ATOM     13  C   UNL     1     -17.011 -13.567  18.568  0.00  0.00    -0.049 A 
ATOM     14  C   UNL     1     -16.476 -14.115  19.733  0.00  0.00    -0.061 A 
ATOM     15  C   UNL     1     -16.935 -13.684  20.976  0.00  0.00    -0.062 A 
ATOM     16  C   UNL     1     -17.907 -12.686  21.058  0.00  0.00    -0.061 A 
ATOM     17  C   UNL     1     -18.453 -12.139  19.894  0.00  0.00    -0.049 A 
ENDBRANCH  10  12
BRANCH   9  18
ATOM     18  C   UNL     1     -14.680 -10.944  14.544  0.00  0.00    +0.120 C 
BRANCH  18  19
ATOM     19  O   UNL     1     -14.570 -11.525  13.234  0.00  0.00    -0.456 OA
BRANCH  19  20
ATOM     20  C   UNL     1     -14.833 -12.848  13.148  0.00  0.00    +0.339 C 
ATOM     21  O   UNL     1     -14.454 -13.713  13.920  0.00  0.00    -0.245 OA
BRANCH  20  22
ATOM     22  C   UNL     1     -15.657 -13.150  11.943  0.00  0.00    +0.059 A 
ATOM     23  C   UNL     1     -15.252 -14.201  11.107  0.00  0.00    -0.048 A 
ATOM     24  C   UNL     1     -15.976 -14.505   9.952  0.00  0.00    -0.061 A 
ATOM     25  C   UNL     1     -17.114 -13.767   9.629  0.00  0.00    -0.062 A 
ATOM     26  C   UNL     1     -17.534 -12.732  10.464  0.00  0.00    -0.061 A 
ATOM     27  C   UNL     1     -16.809 -12.422  11.618  0.00  0.00    -0.048 A 
ENDBRANCH  20  22
ENDBRANCH  19  20
ENDBRANCH  18  19
ENDBRANCH   9  18
TORSDOF 5
ENDMDL
MODEL 3
REMARK VINA RESULT:    -8.650      1.607      2.473
REMARK INTER + INTRA:         -11.640
REMARK INTER:                 -10.411
REMARK INTRA:                  -1.229
REMARK UNBOUND:                -0.462
REMARK  Name = 15d.sdf
REMARK  5 active torsions:
REMARK  status: ('A' for Active; 'I' for Inactive)
REMARK    1  A    between atoms: C_9  and  C_10
REMARK    2  A    between atoms: C_10  and  O_11
REMARK    3  A    between atoms: O_11  and  C_12
REMARK    4  A    between atoms: C_12  and  C_13
REMARK    5  A    between atoms: C_15  and  C_16
REMARK                            x       y       z     vdW  Elec       q    Type
REMARK                         _______ _______ _______ _____ _____    ______ ____
ROOT
ATOM      1  C   UNL     1     -20.454 -11.169  18.759  0.00  0.00    -0.061 A 
ATOM      2  C   UNL     1     -20.539 -10.352  17.640  0.00  0.00    -0.060 A 
ATOM      3  C   UNL     1     -19.616 -10.466  16.595  0.00  0.00    -0.037 A 
ATOM      4  C   UNL     1     -18.590 -11.425  16.704  0.00  0.00    +0.057 A 
ATOM      5  C   UNL     1     -18.492 -12.260  17.827  0.00  0.00    +0.007 A 
ATOM      6  C   UNL     1     -19.439 -12.125  18.861  0.00  0.00    -0.052 A 
ATOM      7  N   UNL     1     -17.589 -11.798  15.806  0.00  0.00    -0.283 N 
ATOM      8  C   UNL     1     -16.834 -12.796  16.408  0.00  0.00    +0.020 A 
ATOM      9  C   UNL     1     -17.375 -13.127  17.633  0.00  0.00    +0.015 A 
ATOM     10  C   UNL     1     -17.376 -11.290  14.500  0.00  0.00    +0.263 C 
ATOM     11  O   UNL     1     -17.795 -10.167  14.231  0.00  0.00    -0.267 OA
ENDROOT
BRANCH  10  12
ATOM     12  C   UNL     1     -16.673 -12.060  13.439  0.00  0.00    +0.040 A 
ATOM     13  C   UNL     1     -15.709 -11.434  12.637  0.00  0.00    -0.049 A 
ATOM     14  C   UNL     1     -15.095 -12.139  11.604  0.00  0.00    -0.061 A 
ATOM     15  C   UNL     1     -15.417 -13.478  11.391  0.00  0.00    -0.062 A 
ATOM     16  C   UNL     1     -16.331 -14.122  12.226  0.00  0.00    -0.061 A 
ATOM     17  C   UNL     1     -16.956 -13.418  13.258  0.00  0.00    -0.049 A 
ENDBRANCH  10  12
BRANCH   9  18
ATOM     18  C   UNL     1     -16.902 -14.209  18.554  0.00  0.00    +0.120 C 
BRANCH  18  19
ATOM     19  O   UNL     1     -16.107 -13.684  19.629  0.00  0.00    -0.456 OA
BRANCH  19  20
ATOM     20  C   UNL     1     -16.404 -14.142  20.867  0.00  0.00    +0.339 C 
ATOM     21  O   UNL     1     -15.849 -15.056  21.452  0.00  0.00    -0.245 OA
BRANCH  20  22
ATOM     22  C   UNL     1     -17.546 -13.385  21.454  0.00  0.00    +0.059 A 
ATOM     23  C   UNL     1     -17.429 -11.992  21.573  0.00  0.00    -0.048 A 
ATOM     24  C   UNL     1     -18.461 -11.242  22.141  0.00  0.00    -0.061 A 
ATOM     25  C   UNL     1     -19.619 -11.876  22.586  0.00  0.00    -0.062 A 
ATOM     26  C   UNL     1     -19.752 -13.258  22.455  0.00  0.00    -0.061 A 
ATOM     27  C   UNL     1     -18.720 -14.013  21.891  0.00  0.00    -0.048 A 
ENDBRANCH  20  22
ENDBRANCH  19  20
ENDBRANCH  18  19
ENDBRANCH   9  18
TORSDOF 5
ENDMDL
