MODEL 1
REMARK VINA RESULT:    -8.498      0.000      0.000
REMARK INTER + INTRA:         -12.154
REMARK INTER:                 -11.479
REMARK INTRA:                  -0.675
REMARK UNBOUND:                -0.675
REMARK  Name = 16c.sdf
REMARK  6 active torsions:
REMARK  status: ('A' for Active; 'I' for Inactive)
REMARK    1  A    between atoms: N_7  and  C_11
REMARK    2  A    between atoms: C_9  and  C_10
REMARK    3  A    between atoms: C_10  and  O_19
REMARK    4  A    between atoms: C_11  and  C_12
REMARK    5  A    between atoms: O_19  and  C_20
REMARK    6  A    between atoms: C_20  and  C_21
REMARK                            x       y       z     vdW  Elec       q    Type
REMARK                         _______ _______ _______ _____ _____    ______ ____
ROOT
ATOM      1  C   UNL     1     -18.596  -8.169  13.608  0.00  0.00    -0.061 A 
ATOM      2  C   UNL     1     -17.403  -8.373  12.919  0.00  0.00    -0.060 A 
ATOM      3  C   UNL     1     -16.716  -9.590  13.009  0.00  0.00    -0.038 A 
ATOM      4  C   UNL     1     -17.264 -10.607  13.808  0.00  0.00    +0.050 A 
ATOM      5  C   UNL     1     -18.481 -10.436  14.474  0.00  0.00    +0.005 A 
ATOM      6  C   UNL     1     -19.148  -9.198  14.375  0.00  0.00    -0.052 A 
ATOM      7  N   UNL     1     -16.817 -11.879  14.115  0.00  0.00    -0.342 N 
ATOM      8  C   UNL     1     -17.750 -12.529  14.887  0.00  0.00    +0.011 A 
ATOM      9  C   UNL     1     -18.806 -11.669  15.115  0.00  0.00    +0.003 A 
ENDROOT
BRANCH   9  10
ATOM     10  C   UNL     1     -20.077 -11.980  15.836  0.00  0.00    +0.075 C 
BRANCH  10  11
ATOM     11  O   UNL     1     -19.889 -12.166  17.244  0.00  0.00    -0.371 OA
BRANCH  11  12
ATOM     12  C   UNL     1     -18.663 -11.610  17.709  0.00  0.00    +0.073 C 
BRANCH  12  13
ATOM     13  C   UNL     1     -18.054 -12.569  18.698  0.00  0.00    -0.022 A 
ATOM     14  C   UNL     1     -18.620 -12.727  19.972  0.00  0.00    -0.055 A 
ATOM     15  C   UNL     1     -18.054 -13.610  20.892  0.00  0.00    -0.043 A 
ATOM     16  C   UNL     1     -16.911 -14.329  20.546  0.00  0.00    +0.041 A 
ATOM     17  C   UNL     1     -16.331 -14.171  19.287  0.00  0.00    -0.043 A 
ATOM     18  C   UNL     1     -16.896 -13.286  18.371  0.00  0.00    -0.055 A 
ATOM     19 CL   UNL     1     -16.211 -15.417  21.680  0.00  0.00    -0.084 Cl
ENDBRANCH  12  13
ENDBRANCH  11  12
ENDBRANCH  10  11
ENDBRANCH   9  10
BRANCH   7  20
ATOM     20  C   UNL     1     -15.518 -12.451  13.761  0.00  0.00    +0.048 C 
BRANCH  20  21
ATOM     21  C   UNL     1     -15.530 -13.051  12.376  0.00  0.00    -0.028 A 
ATOM     22  C   UNL     1     -15.809 -14.414  12.195  0.00  0.00    -0.055 A 
ATOM     23  C   UNL     1     -15.729 -14.994  10.928  0.00  0.00    -0.043 A 
ATOM     24  C   UNL     1     -15.381 -14.212   9.830  0.00  0.00    +0.041 A 
ATOM     25  C   UNL     1     -15.145 -12.849   9.982  0.00  0.00    -0.043 A 
ATOM     26  C   UNL     1     -15.222 -12.268  11.251  0.00  0.00    -0.055 A 
ATOM     27 CL   UNL     1     -15.223 -14.940   8.279  0.00  0.00    -0.084 Cl
ENDBRANCH  20  21
ENDBRANCH   7  20
TORSDOF 6
ENDMDL
MODEL 2
REMARK VINA RESULT:    -8.333      2.489      4.041
REMARK INTER + INTRA:         -11.931
REMARK INTER:                  -9.998
REMARK INTRA:                  -1.933
REMARK UNBOUND:                -0.675
REMARK  Name = 16c.sdf
REMARK  6 active torsions:
REMARK  status: ('A' for Active; 'I' for Inactive)
REMARK    1  A    between atoms: N_7  and  C_11
REMARK    2  A    between atoms: C_9  and  C_10
REMARK    3  A    between atoms: C_10  and  O_19
REMARK    4  A    between atoms: C_11  and  C_12
REMARK    5  A    between atoms: O_19  and  C_20
REMARK    6  A    between atoms: C_20  and  C_21
REMARK                            x       y       z     vdW  Elec       q    Type
REMARK                         _______ _______ _______ _____ _____    ______ ____
ROOT
ATOM      1  C   UNL     1     -20.170 -11.130  17.998  0.00  0.00    -0.061 A 
ATOM      2  C   UNL     1     -19.790 -10.358  16.902  0.00  0.00    -0.060 A 
ATOM      3  C   UNL     1     -18.515 -10.485  16.337  0.00  0.00    -0.038 A 
ATOM      4  C   UNL     1     -17.626 -11.418  16.898  0.00  0.00    +0.050 A 
ATOM      5  C   UNL     1     -18.003 -12.229  17.972  0.00  0.00    +0.005 A 
ATOM      6  C   UNL     1     -19.290 -12.076  18.529  0.00  0.00    -0.052 A 
ATOM      7  N   UNL     1     -16.319 -11.744  16.591  0.00  0.00    -0.342 N 
ATOM      8  C   UNL     1     -15.897 -12.782  17.387  0.00  0.00    +0.011 A 
ATOM      9  C   UNL     1     -16.924 -13.122  18.245  0.00  0.00    +0.003 A 
ENDROOT
BRANCH   9  10
ATOM     10  C   UNL     1     -16.937 -14.247  19.229  0.00  0.00    +0.075 C 
BRANCH  10  11
ATOM     11  O   UNL     1     -16.330 -13.901  20.479  0.00  0.00    -0.371 OA
BRANCH  11  12
ATOM     12  C   UNL     1     -17.154 -14.224  21.594  0.00  0.00    +0.073 C 
BRANCH  12  13
ATOM     13  C   UNL     1     -18.169 -13.124  21.768  0.00  0.00    -0.022 A 
ATOM     14  C   UNL     1     -19.534 -13.429  21.868  0.00  0.00    -0.055 A 
ATOM     15  C   UNL     1     -20.476 -12.412  22.025  0.00  0.00    -0.043 A 
ATOM     16  C   UNL     1     -20.057 -11.084  22.067  0.00  0.00    +0.041 A 
ATOM     17  C   UNL     1     -18.703 -10.766  21.956  0.00  0.00    -0.043 A 
ATOM     18  C   UNL     1     -17.764 -11.784  21.797  0.00  0.00    -0.055 A 
ATOM     19 CL   UNL     1     -21.217  -9.827  22.258  0.00  0.00    -0.084 Cl
ENDBRANCH  12  13
ENDBRANCH  11  12
ENDBRANCH  10  11
ENDBRANCH   9  10
BRANCH   7  20
ATOM     20  C   UNL     1     -15.457 -11.059  15.630  0.00  0.00    +0.048 C 
BRANCH  20  21
ATOM     21  C   UNL     1     -15.630 -11.604  14.233  0.00  0.00    -0.028 A 
ATOM     22  C   UNL     1     -16.346 -10.876  13.270  0.00  0.00    -0.055 A 
ATOM     23  C   UNL     1     -16.590 -11.417  12.006  0.00  0.00    -0.043 A 
ATOM     24  C   UNL     1     -16.110 -12.686  11.692  0.00  0.00    +0.041 A 
ATOM     25  C   UNL     1     -15.360 -13.405  12.619  0.00  0.00    -0.043 A 
ATOM     26  C   UNL     1     -15.118 -12.865  13.885  0.00  0.00    -0.055 A 
ATOM     27 CL   UNL     1     -16.464 -13.377  10.157  0.00  0.00    -0.084 Cl
ENDBRANCH  20  21
ENDBRANCH   7  20
TORSDOF 6
ENDMDL
MODEL 3
REMARK VINA RESULT:    -8.281      3.087      9.108
REMARK INTER + INTRA:         -11.861
REMARK INTER:                 -10.907
REMARK INTRA:                  -0.954
REMARK UNBOUND:                -0.675
REMARK  Name = 16c.sdf
REMARK  6 active torsions:
REMARK  status: ('A' for Active; 'I' for Inactive)
REMARK    1  A    between atoms: N_7  and  C_11
REMARK    2  A    between atoms: C_9  and  C_10
REMARK    3  A    between atoms: C_10  and  O_19
REMARK    4  A    between atoms: C_11  and  C_12
REMARK    5  A    between atoms: O_19  and  C_20
REMARK    6  A    between atoms: C_20  and  C_21
REMARK                            x       y       z     vdW  Elec       q    Type
REMARK                         _______ _______ _______ _____ _____    ______ ____
ROOT
ATOM      1  C   UNL     1     -16.259 -14.747  20.889  0.00  0.00    -0.061 A 
ATOM      2  C   UNL     1     -17.349 -14.402  21.685  0.00  0.00    -0.060 A 
ATOM      3  C   UNL     1     -18.340 -13.532  21.215  0.00  0.00    -0.038 A 
ATOM      4  C   UNL     1     -18.214 -13.018  19.913  0.00  0.00    +0.050 A 
ATOM      5  C   UNL     1     -17.149 -13.384  19.085  0.00  0.00    +0.005 A 
ATOM      6  C   UNL     1     -16.159 -14.255  19.586  0.00  0.00    -0.052 A 
ATOM      7  N   UNL     1     -18.994 -12.133  19.193  0.00  0.00    -0.342 N 
ATOM      8  C   UNL     1     -18.491 -11.996  17.921  0.00  0.00    +0.011 A 
ATOM      9  C   UNL     1     -17.355 -12.773  17.812  0.00  0.00    +0.003 A 
ENDROOT
BRANCH   9  10
ATOM     10  C   UNL     1     -16.530 -12.991  16.585  0.00  0.00    +0.075 C 
BRANCH  10  11
ATOM     11  O   UNL     1     -16.577 -11.884  15.678  0.00  0.00    -0.371 OA
BRANCH  11  12
ATOM     12  C   UNL     1     -15.396 -11.774  14.890  0.00  0.00    +0.073 C 
BRANCH  12  13
ATOM     13  C   UNL     1     -15.700 -12.286  13.506  0.00  0.00    -0.022 A 
ATOM     14  C   UNL     1     -16.507 -11.539  12.636  0.00  0.00    -0.055 A 
ATOM     15  C   UNL     1     -16.794 -12.014  11.355  0.00  0.00    -0.043 A 
ATOM     16  C   UNL     1     -16.286 -13.246  10.946  0.00  0.00    +0.041 A 
ATOM     17  C   UNL     1     -15.493 -14.005  11.807  0.00  0.00    -0.043 A 
ATOM     18  C   UNL     1     -15.210 -13.530  13.086  0.00  0.00    -0.055 A 
ATOM     19 CL   UNL     1     -16.640 -13.834   9.368  0.00  0.00    -0.084 Cl
ENDBRANCH  12  13
ENDBRANCH  11  12
ENDBRANCH  10  11
ENDBRANCH   9  10
BRANCH   7  20
ATOM     20  C   UNL     1     -20.137 -11.375  19.698  0.00  0.00    +0.048 C 
BRANCH  20  21
ATOM     21  C   UNL     1     -19.707 -10.093  20.368  0.00  0.00    -0.028 A 
ATOM     22  C   UNL     1     -19.525  -8.924  19.613  0.00  0.00    -0.055 A 
ATOM     23  C   UNL     1     -19.037  -7.760  20.211  0.00  0.00    -0.043 A 
ATOM     24  C   UNL     1     -18.740  -7.754  21.571  0.00  0.00    +0.041 A 
ATOM     25  C   UNL     1     -18.956  -8.890  22.345  0.00  0.00    -0.043 A 
ATOM     26  C   UNL     1     -19.442 -10.056  21.746  0.00  0.00    -0.055 A 
ATOM     27 CL   UNL     1     -18.081  -6.338  22.294  0.00  0.00    -0.084 Cl
ENDBRANCH  20  21
ENDBRANCH   7  20
TORSDOF 6
ENDMDL
