MODEL 1
REMARK VINA RESULT:    -9.291      0.000      0.000
REMARK INTER + INTRA:         -12.714
REMARK INTER:                 -12.007
REMARK INTRA:                  -0.707
REMARK UNBOUND:                -0.707
REMARK  Name = 17f.sdf
REMARK  5 active torsions:
REMARK  status: ('A' for Active; 'I' for Inactive)
REMARK    1  A    between atoms: N_7  and  C_11
REMARK    2  A    between atoms: C_9  and  C_10
REMARK    3  A    between atoms: C_11  and  C_12
REMARK    4  A    between atoms: C_12  and  C_13
REMARK    5  A    between atoms: N_21  and  N_22
REMARK                            x       y       z     vdW  Elec       q    Type
REMARK                         _______ _______ _______ _____ _____    ______ ____
ROOT
ATOM      1  C   UNL     1     -18.138  -9.607  11.392  0.00  0.00    -0.061 A 
ATOM      2  C   UNL     1     -17.691  -8.723  12.368  0.00  0.00    -0.060 A 
ATOM      3  C   UNL     1     -16.941  -9.171  13.462  0.00  0.00    -0.038 A 
ATOM      4  C   UNL     1     -16.624 -10.536  13.529  0.00  0.00    +0.050 A 
ATOM      5  C   UNL     1     -16.950 -11.415  12.490  0.00  0.00    +0.009 A 
ATOM      6  C   UNL     1     -17.762 -10.950  11.433  0.00  0.00    -0.052 A 
ATOM      7  N   UNL     1     -16.006 -11.294  14.506  0.00  0.00    -0.338 N 
ATOM      8  C   UNL     1     -15.728 -12.545  14.013  0.00  0.00    +0.015 A 
ATOM      9  C   UNL     1     -16.267 -12.643  12.745  0.00  0.00    +0.020 A 
ENDROOT
BRANCH   9  10
ATOM     10  C   UNL     1     -16.121 -13.745  11.818  0.00  0.00    +0.055 C 
ATOM     11  N   UNL     1     -14.967 -13.977  11.276  0.00  0.00    -0.186 NA
BRANCH  11  12
ATOM     12  N   UNL     1     -14.983 -14.963  10.322  0.00  0.00    -0.191 N 
ATOM     13  C   UNL     1     -14.817 -14.669   8.992  0.00  0.00    +0.317 C 
ATOM     14  O   UNL     1     -14.950 -15.498   8.101  0.00  0.00    -0.251 OA
ATOM     15  N   UNL     1     -14.484 -13.377   8.751  0.00  0.00    -0.312 N 
ATOM     16  H   UNL     1     -15.118 -15.899  10.597  0.00  0.00    +0.000 HD
ATOM     17  H   UNL     1     -14.389 -12.746   9.501  0.00  0.00    +0.000 HD
ATOM     18  H   UNL     1     -14.337 -13.071   7.827  0.00  0.00    +0.000 HD
ENDBRANCH  11  12
ENDBRANCH   9  10
BRANCH   7  19
ATOM     19  C   UNL     1     -15.886 -10.931  15.919  0.00  0.00    +0.086 C 
BRANCH  19  20
ATOM     20  C   UNL     1     -17.147 -11.113  16.732  0.00  0.00    +0.183 C 
ATOM     21  O   UNL     1     -18.191 -10.514  16.502  0.00  0.00    -0.290 OA
BRANCH  20  22
ATOM     22  C   UNL     1     -17.114 -12.095  17.870  0.00  0.00    +0.019 A 
ATOM     23  C   UNL     1     -17.938 -11.983  18.997  0.00  0.00    -0.050 A 
ATOM     24  C   UNL     1     -17.802 -12.881  20.064  0.00  0.00    -0.047 A 
ATOM     25  C   UNL     1     -16.848 -13.896  20.003  0.00  0.00    +0.018 A 
ATOM     26  C   UNL     1     -16.055 -14.048  18.870  0.00  0.00    -0.047 A 
ATOM     27  C   UNL     1     -16.192 -13.151  17.803  0.00  0.00    -0.050 A 
ATOM     28 BR   UNL     1     -16.610 -15.053  21.478  0.00  0.00    -0.050 Br
ENDBRANCH  20  22
ENDBRANCH  19  20
ENDBRANCH   7  19
TORSDOF 5
ENDMDL
MODEL 2
REMARK VINA RESULT:    -7.991      4.921      9.827
REMARK INTER + INTRA:         -11.034
REMARK INTER:                 -10.332
REMARK INTRA:                  -0.702
REMARK UNBOUND:                -0.707
REMARK  Name = 17f.sdf
REMARK  5 active torsions:
REMARK  status: ('A' for Active; 'I' for Inactive)
REMARK    1  A    between atoms: N_7  and  C_11
REMARK    2  A    between atoms: C_9  and  C_10
REMARK    3  A    between atoms: C_11  and  C_12
REMARK    4  A    between atoms: C_12  and  C_13
REMARK    5  A    between atoms: N_21  and  N_22
REMARK                            x       y       z     vdW  Elec       q    Type
REMARK                         _______ _______ _______ _____ _____    ______ ____
ROOT
ATOM      1  C   UNL     1     -16.649 -14.884  21.556  0.00  0.00    -0.061 A 
ATOM      2  C   UNL     1     -15.862 -14.755  20.417  0.00  0.00    -0.060 A 
ATOM      3  C   UNL     1     -16.253 -13.929  19.356  0.00  0.00    -0.038 A 
ATOM      4  C   UNL     1     -17.450 -13.208  19.489  0.00  0.00    +0.050 A 
ATOM      5  C   UNL     1     -18.184 -13.221  20.680  0.00  0.00    +0.009 A 
ATOM      6  C   UNL     1     -17.802 -14.112  21.707  0.00  0.00    -0.052 A 
ATOM      7  N   UNL     1     -18.150 -12.410  18.604  0.00  0.00    -0.338 N 
ATOM      8  C   UNL     1     -19.151 -11.748  19.272  0.00  0.00    +0.015 A 
ATOM      9  C   UNL     1     -19.176 -12.199  20.577  0.00  0.00    +0.020 A 
ENDROOT
BRANCH   9  10
ATOM     10  C   UNL     1     -19.998 -11.698  21.658  0.00  0.00    +0.055 C 
ATOM     11  N   UNL     1     -19.455 -10.997  22.604  0.00  0.00    -0.186 NA
BRANCH  11  12
ATOM     12  N   UNL     1     -20.307 -10.688  23.633  0.00  0.00    -0.191 N 
ATOM     13  C   UNL     1     -20.374  -9.417  24.144  0.00  0.00    +0.317 C 
ATOM     14  O   UNL     1     -21.025  -9.128  25.139  0.00  0.00    -0.251 OA
ATOM     15  N   UNL     1     -19.659  -8.503  23.442  0.00  0.00    -0.312 N 
ATOM     16  H   UNL     1     -20.881 -11.392  24.013  0.00  0.00    +0.000 HD
ATOM     17  H   UNL     1     -19.150  -8.783  22.647  0.00  0.00    +0.000 HD
ATOM     18  H   UNL     1     -19.651  -7.561  23.727  0.00  0.00    +0.000 HD
ENDBRANCH  11  12
ENDBRANCH   9  10
BRANCH   7  19
ATOM     19  C   UNL     1     -18.028 -12.441  17.146  0.00  0.00    +0.086 C 
BRANCH  19  20
ATOM     20  C   UNL     1     -16.927 -11.573  16.582  0.00  0.00    +0.183 C 
ATOM     21  O   UNL     1     -16.385 -10.673  17.214  0.00  0.00    -0.290 OA
BRANCH  20  22
ATOM     22  C   UNL     1     -16.466 -11.847  15.177  0.00  0.00    +0.019 A 
ATOM     23  C   UNL     1     -15.362 -11.207  14.599  0.00  0.00    -0.050 A 
ATOM     24  C   UNL     1     -15.032 -11.441  13.258  0.00  0.00    -0.047 A 
ATOM     25  C   UNL     1     -15.800 -12.319  12.494  0.00  0.00    +0.018 A 
ATOM     26  C   UNL     1     -16.871 -12.996  13.068  0.00  0.00    -0.047 A 
ATOM     27  C   UNL     1     -17.200 -12.764  14.408  0.00  0.00    -0.050 A 
ATOM     28 BR   UNL     1     -15.404 -12.567  10.663  0.00  0.00    -0.050 Br
ENDBRANCH  20  22
ENDBRANCH  19  20
ENDBRANCH   7  19
TORSDOF 5
ENDMDL
