MODEL 1
REMARK VINA RESULT:    -8.157      0.000      0.000
REMARK INTER + INTRA:         -11.386
REMARK INTER:                 -10.541
REMARK INTRA:                  -0.846
REMARK UNBOUND:                -0.846
REMARK  Name = 17g.sdf
REMARK  6 active torsions:
REMARK  status: ('A' for Active; 'I' for Inactive)
REMARK    1  A    between atoms: N_7  and  C_16
REMARK    2  A    between atoms: C_9  and  C_10
REMARK    3  A    between atoms: N_11  and  N_12
REMARK    4  A    between atoms: C_16  and  C_17
REMARK    5  A    between atoms: C_20  and  O_23
REMARK    6  A    between atoms: O_23  and  C_24
REMARK                            x       y       z     vdW  Elec       q    Type
REMARK                         _______ _______ _______ _____ _____    ______ ____
ROOT
ATOM      1  C   UNL     1     -19.153 -10.860  12.331  0.00  0.00    -0.061 A 
ATOM      2  C   UNL     1     -19.086 -10.033  13.446  0.00  0.00    -0.060 A 
ATOM      3  C   UNL     1     -18.038 -10.149  14.365  0.00  0.00    -0.038 A 
ATOM      4  C   UNL     1     -17.047 -11.118  14.132  0.00  0.00    +0.050 A 
ATOM      5  C   UNL     1     -17.070 -11.929  12.990  0.00  0.00    +0.009 A 
ATOM      6  C   UNL     1     -18.149 -11.801  12.087  0.00  0.00    -0.052 A 
ATOM      7  N   UNL     1     -15.940 -11.494  14.871  0.00  0.00    -0.342 N 
ATOM      8  C   UNL     1     -15.234 -12.454  14.191  0.00  0.00    +0.015 A 
ATOM      9  C   UNL     1     -15.900 -12.749  13.016  0.00  0.00    +0.020 A 
ENDROOT
BRANCH   9  10
ATOM     10  C   UNL     1     -15.471 -13.704  12.017  0.00  0.00    +0.055 C 
ATOM     11  N   UNL     1     -15.140 -13.282  10.840  0.00  0.00    -0.186 NA
BRANCH  11  12
ATOM     12  N   UNL     1     -14.767 -14.254   9.953  0.00  0.00    -0.191 N 
ATOM     13  C   UNL     1     -15.570 -14.606   8.892  0.00  0.00    +0.317 C 
ATOM     14  O   UNL     1     -15.252 -15.442   8.060  0.00  0.00    -0.251 OA
ATOM     15  N   UNL     1     -16.754 -13.944   8.856  0.00  0.00    -0.312 N 
ATOM     16  H   UNL     1     -13.904 -14.713  10.075  0.00  0.00    +0.000 HD
ATOM     17  H   UNL     1     -16.966 -13.278   9.549  0.00  0.00    +0.000 HD
ATOM     18  H   UNL     1     -17.400 -14.130   8.137  0.00  0.00    +0.000 HD
ENDBRANCH  11  12
ENDBRANCH   9  10
BRANCH   7  19
ATOM     19  C   UNL     1     -15.606 -11.053  16.224  0.00  0.00    +0.048 C 
BRANCH  19  20
ATOM     20  C   UNL     1     -16.475 -11.716  17.262  0.00  0.00    -0.028 A 
ATOM     21  C   UNL     1     -17.455 -10.981  17.936  0.00  0.00    -0.053 A 
ATOM     22  C   UNL     1     -18.168 -11.554  18.990  0.00  0.00    -0.020 A 
ATOM     23  C   UNL     1     -17.938 -12.876  19.372  0.00  0.00    +0.120 A 
ATOM     24  C   UNL     1     -17.012 -13.638  18.665  0.00  0.00    -0.020 A 
ATOM     25  C   UNL     1     -16.282 -13.060  17.616  0.00  0.00    -0.053 A 
BRANCH  23  26
ATOM     26  O   UNL     1     -18.628 -13.268  20.485  0.00  0.00    -0.495 OA
ATOM     27  C   UNL     1     -17.900 -13.936  21.504  0.00  0.00    +0.079 C 
ENDBRANCH  23  26
ENDBRANCH  19  20
ENDBRANCH   7  19
TORSDOF 5
ENDMDL
MODEL 2
REMARK VINA RESULT:    -7.654      3.983      6.776
REMARK INTER + INTRA:         -10.737
REMARK INTER:                  -9.891
REMARK INTRA:                  -0.846
REMARK UNBOUND:                -0.846
REMARK  Name = 17g.sdf
REMARK  6 active torsions:
REMARK  status: ('A' for Active; 'I' for Inactive)
REMARK    1  A    between atoms: N_7  and  C_16
REMARK    2  A    between atoms: C_9  and  C_10
REMARK    3  A    between atoms: N_11  and  N_12
REMARK    4  A    between atoms: C_16  and  C_17
REMARK    5  A    between atoms: C_20  and  O_23
REMARK    6  A    between atoms: O_23  and  C_24
REMARK                            x       y       z     vdW  Elec       q    Type
REMARK                         _______ _______ _______ _____ _____    ______ ____
ROOT
ATOM      1  C   UNL     1     -16.137 -14.704  21.041  0.00  0.00    -0.061 A 
ATOM      2  C   UNL     1     -17.324 -14.659  21.763  0.00  0.00    -0.060 A 
ATOM      3  C   UNL     1     -18.400 -13.880  21.330  0.00  0.00    -0.038 A 
ATOM      4  C   UNL     1     -18.258 -13.144  20.140  0.00  0.00    +0.050 A 
ATOM      5  C   UNL     1     -17.088 -13.212  19.373  0.00  0.00    +0.009 A 
ATOM      6  C   UNL     1     -16.010 -13.996  19.844  0.00  0.00    -0.052 A 
ATOM      7  N   UNL     1     -19.110 -12.264  19.499  0.00  0.00    -0.342 N 
ATOM      8  C   UNL     1     -18.541 -11.843  18.323  0.00  0.00    +0.015 A 
ATOM      9  C   UNL     1     -17.288 -12.413  18.205  0.00  0.00    +0.020 A 
ENDROOT
BRANCH   9  10
ATOM     10  C   UNL     1     -16.374 -12.225  17.099  0.00  0.00    +0.055 C 
ATOM     11  N   UNL     1     -16.016 -11.025  16.771  0.00  0.00    -0.186 NA
BRANCH  11  12
ATOM     12  N   UNL     1     -15.167 -10.939  15.702  0.00  0.00    -0.191 N 
ATOM     13  C   UNL     1     -15.529 -10.285  14.547  0.00  0.00    +0.317 C 
ATOM     14  O   UNL     1     -14.783 -10.156  13.588  0.00  0.00    -0.251 OA
ATOM     15  N   UNL     1     -16.796  -9.799  14.565  0.00  0.00    -0.312 N 
ATOM     16  H   UNL     1     -14.276 -11.354  15.760  0.00  0.00    +0.000 HD
ATOM     17  H   UNL     1     -17.360  -9.927  15.360  0.00  0.00    +0.000 HD
ATOM     18  H   UNL     1     -17.149  -9.319  13.782  0.00  0.00    +0.000 HD
ENDBRANCH  11  12
ENDBRANCH   9  10
BRANCH   7  19
ATOM     19  C   UNL     1     -20.372 -11.738  20.018  0.00  0.00    +0.048 C 
BRANCH  19  20
ATOM     20  C   UNL     1     -20.169 -10.917  21.265  0.00  0.00    -0.028 A 
ATOM     21  C   UNL     1     -20.916 -11.186  22.416  0.00  0.00    -0.053 A 
ATOM     22  C   UNL     1     -20.829 -10.345  23.526  0.00  0.00    -0.020 A 
ATOM     23  C   UNL     1     -19.978  -9.239  23.521  0.00  0.00    +0.120 A 
ATOM     24  C   UNL     1     -19.180  -9.000  22.405  0.00  0.00    -0.020 A 
ATOM     25  C   UNL     1     -19.277  -9.834  21.282  0.00  0.00    -0.053 A 
BRANCH  23  26
ATOM     26  O   UNL     1     -20.076  -8.447  24.630  0.00  0.00    -0.495 OA
ATOM     27  C   UNL     1     -20.715  -8.999  25.772  0.00  0.00    +0.079 C 
ENDBRANCH  23  26
ENDBRANCH  19  20
ENDBRANCH   7  19
TORSDOF 5
ENDMDL
MODEL 3
REMARK VINA RESULT:    -6.580      1.851      2.366
REMARK INTER + INTRA:          -9.349
REMARK INTER:                  -8.470
REMARK INTRA:                  -0.879
REMARK UNBOUND:                -0.846
REMARK  Name = 17g.sdf
REMARK  6 active torsions:
REMARK  status: ('A' for Active; 'I' for Inactive)
REMARK    1  A    between atoms: N_7  and  C_16
REMARK    2  A    between atoms: C_9  and  C_10
REMARK    3  A    between atoms: N_11  and  N_12
REMARK    4  A    between atoms: C_16  and  C_17
REMARK    5  A    between atoms: C_20  and  O_23
REMARK    6  A    between atoms: O_23  and  C_24
REMARK                            x       y       z     vdW  Elec       q    Type
REMARK                         _______ _______ _______ _____ _____    ______ ____
ROOT
ATOM      1  C   UNL     1     -21.889 -11.670  14.372  0.00  0.00    -0.061 A 
ATOM      2  C   UNL     1     -21.798 -10.996  15.584  0.00  0.00    -0.060 A 
ATOM      3  C   UNL     1     -20.555 -10.682  16.141  0.00  0.00    -0.038 A 
ATOM      4  C   UNL     1     -19.394 -11.058  15.443  0.00  0.00    +0.050 A 
ATOM      5  C   UNL     1     -19.463 -11.696  14.199  0.00  0.00    +0.009 A 
ATOM      6  C   UNL     1     -20.733 -12.016  13.667  0.00  0.00    -0.052 A 
ATOM      7  N   UNL     1     -18.054 -10.933  15.758  0.00  0.00    -0.342 N 
ATOM      8  C   UNL     1     -17.289 -11.400  14.719  0.00  0.00    +0.015 A 
ATOM      9  C   UNL     1     -18.126 -11.878  13.729  0.00  0.00    +0.020 A 
ENDROOT
BRANCH   9  10
ATOM     10  C   UNL     1     -17.704 -12.445  12.466  0.00  0.00    +0.055 C 
ATOM     11  N   UNL     1     -16.491 -12.879  12.340  0.00  0.00    -0.186 NA
BRANCH  11  12
ATOM     12  N   UNL     1     -16.173 -13.379  11.108  0.00  0.00    -0.191 N 
ATOM     13  C   UNL     1     -15.146 -12.849  10.360  0.00  0.00    +0.317 C 
ATOM     14  O   UNL     1     -14.811 -13.295   9.273  0.00  0.00    -0.251 OA
ATOM     15  N   UNL     1     -14.542 -11.780  10.936  0.00  0.00    -0.312 N 
ATOM     16  H   UNL     1     -16.690 -14.136  10.747  0.00  0.00    +0.000 HD
ATOM     17  H   UNL     1     -14.848 -11.457  11.814  0.00  0.00    +0.000 HD
ATOM     18  H   UNL     1     -13.799 -11.328  10.476  0.00  0.00    +0.000 HD
ENDBRANCH  11  12
ENDBRANCH   9  10
BRANCH   7  19
ATOM     19  C   UNL     1     -17.496 -10.493  17.036  0.00  0.00    +0.048 C 
BRANCH  19  20
ATOM     20  C   UNL     1     -17.626 -11.552  18.100  0.00  0.00    -0.028 A 
ATOM     21  C   UNL     1     -18.611 -11.446  19.086  0.00  0.00    -0.053 A 
ATOM     22  C   UNL     1     -18.648 -12.350  20.149  0.00  0.00    -0.020 A 
ATOM     23  C   UNL     1     -17.724 -13.391  20.233  0.00  0.00    +0.120 A 
ATOM     24  C   UNL     1     -16.779 -13.547  19.222  0.00  0.00    -0.020 A 
ATOM     25  C   UNL     1     -16.729 -12.631  18.161  0.00  0.00    -0.053 A 
BRANCH  23  26
ATOM     26  O   UNL     1     -17.812 -14.131  21.379  0.00  0.00    -0.495 OA
ATOM     27  C   UNL     1     -18.990 -13.989  22.159  0.00  0.00    +0.079 C 
ENDBRANCH  23  26
ENDBRANCH  19  20
ENDBRANCH   7  19
TORSDOF 5
ENDMDL
