MODEL 1
REMARK VINA RESULT:    -8.772      0.000      0.000
REMARK INTER + INTRA:         -12.143
REMARK INTER:                 -11.337
REMARK INTRA:                  -0.806
REMARK UNBOUND:                -0.806
REMARK  Name = 18a.sdf
REMARK  5 active torsions:
REMARK  status: ('A' for Active; 'I' for Inactive)
REMARK    1  A    between atoms: N_7  and  C_12
REMARK    2  A    between atoms: C_9  and  C_10
REMARK    3  A    between atoms: N_11  and  N_19
REMARK    4  A    between atoms: C_12  and  C_13
REMARK    5  A    between atoms: C_20  and  C_22
REMARK                            x       y       z     vdW  Elec       q    Type
REMARK                         _______ _______ _______ _____ _____    ______ ____
ROOT
ATOM      1  C   UNL     1     -16.276 -14.849  20.484  0.00  0.00    -0.061 A 
ATOM      2  C   UNL     1     -16.825 -14.237  21.603  0.00  0.00    -0.060 A 
ATOM      3  C   UNL     1     -17.659 -13.120  21.478  0.00  0.00    -0.038 A 
ATOM      4  C   UNL     1     -17.931 -12.628  20.190  0.00  0.00    +0.050 A 
ATOM      5  C   UNL     1     -17.433 -13.265  19.046  0.00  0.00    +0.009 A 
ATOM      6  C   UNL     1     -16.584 -14.383  19.203  0.00  0.00    -0.052 A 
ATOM      7  N   UNL     1     -18.647 -11.524  19.756  0.00  0.00    -0.342 N 
ATOM      8  C   UNL     1     -18.684 -11.509  18.383  0.00  0.00    +0.015 A 
ATOM      9  C   UNL     1     -17.956 -12.580  17.905  0.00  0.00    +0.020 A 
ENDROOT
BRANCH   9  10
ATOM     10  C   UNL     1     -17.760 -12.929  16.513  0.00  0.00    +0.055 C 
ATOM     11  N   UNL     1     -16.828 -12.343  15.829  0.00  0.00    -0.187 NA
BRANCH  11  12
ATOM     12  N   UNL     1     -16.719 -12.721  14.519  0.00  0.00    -0.203 N 
ATOM     13  C   UNL     1     -15.492 -12.622  13.880  0.00  0.00    +0.263 C 
ATOM     14  O   UNL     1     -14.456 -12.227  14.404  0.00  0.00    -0.268 OA
ATOM     15  H   UNL     1     -17.507 -13.061  14.034  0.00  0.00    +0.000 HD
BRANCH  13  16
ATOM     16  C   UNL     1     -15.459 -13.076  12.458  0.00  0.00    +0.038 A 
ATOM     17  C   UNL     1     -15.283 -12.187  11.389  0.00  0.00    -0.050 A 
ATOM     18  C   UNL     1     -15.253 -12.677  10.074  0.00  0.00    -0.061 A 
ATOM     19  C   UNL     1     -15.391 -14.043   9.829  0.00  0.00    -0.062 A 
ATOM     20  C   UNL     1     -15.545 -14.931  10.892  0.00  0.00    -0.061 A 
ATOM     21  C   UNL     1     -15.576 -14.448  12.204  0.00  0.00    -0.050 A 
ENDBRANCH  13  16
ENDBRANCH  11  12
ENDBRANCH   9  10
BRANCH   7  22
ATOM     22  C   UNL     1     -19.184 -10.447  20.590  0.00  0.00    +0.048 C 
BRANCH  22  23
ATOM     23  C   UNL     1     -20.505 -10.826  21.214  0.00  0.00    -0.028 A 
ATOM     24  C   UNL     1     -21.450 -11.561  20.485  0.00  0.00    -0.056 A 
ATOM     25  C   UNL     1     -22.731 -11.774  20.997  0.00  0.00    -0.047 A 
ATOM     26  C   UNL     1     -23.066 -11.272  22.250  0.00  0.00    +0.018 A 
ATOM     27  C   UNL     1     -22.115 -10.613  23.024  0.00  0.00    -0.047 A 
ATOM     28  C   UNL     1     -20.836 -10.392  22.508  0.00  0.00    -0.056 A 
ATOM     29 BR   UNL     1     -24.840 -11.439  22.882  0.00  0.00    -0.050 Br
ENDBRANCH  22  23
ENDBRANCH   7  22
TORSDOF 5
ENDMDL
MODEL 2
REMARK VINA RESULT:    -8.434      3.810      8.864
REMARK INTER + INTRA:         -11.705
REMARK INTER:                 -10.783
REMARK INTRA:                  -0.922
REMARK UNBOUND:                -0.806
REMARK  Name = 18a.sdf
REMARK  5 active torsions:
REMARK  status: ('A' for Active; 'I' for Inactive)
REMARK    1  A    between atoms: N_7  and  C_12
REMARK    2  A    between atoms: C_9  and  C_10
REMARK    3  A    between atoms: N_11  and  N_19
REMARK    4  A    between atoms: C_12  and  C_13
REMARK    5  A    between atoms: C_20  and  C_22
REMARK                            x       y       z     vdW  Elec       q    Type
REMARK                         _______ _______ _______ _____ _____    ______ ____
ROOT
ATOM      1  C   UNL     1     -15.395 -14.751  11.095  0.00  0.00    -0.061 A 
ATOM      2  C   UNL     1     -15.573 -13.876  10.031  0.00  0.00    -0.060 A 
ATOM      3  C   UNL     1     -16.161 -12.620  10.220  0.00  0.00    -0.038 A 
ATOM      4  C   UNL     1     -16.571 -12.261  11.516  0.00  0.00    +0.050 A 
ATOM      5  C   UNL     1     -16.349 -13.107  12.612  0.00  0.00    +0.009 A 
ATOM      6  C   UNL     1     -15.765 -14.372  12.389  0.00  0.00    -0.052 A 
ATOM      7  N   UNL     1     -17.230 -11.143  11.998  0.00  0.00    -0.342 N 
ATOM      8  C   UNL     1     -17.343 -11.227  13.365  0.00  0.00    +0.015 A 
ATOM      9  C   UNL     1     -16.795 -12.422  13.785  0.00  0.00    +0.020 A 
ENDROOT
BRANCH   9  10
ATOM     10  C   UNL     1     -16.703 -12.887  15.154  0.00  0.00    +0.055 C 
ATOM     11  N   UNL     1     -16.636 -12.027  16.121  0.00  0.00    -0.187 NA
BRANCH  11  12
ATOM     12  N   UNL     1     -16.538 -12.550  17.381  0.00  0.00    -0.203 N 
ATOM     13  C   UNL     1     -17.691 -12.755  18.126  0.00  0.00    +0.263 C 
ATOM     14  O   UNL     1     -18.830 -12.516  17.739  0.00  0.00    -0.268 OA
ATOM     15  H   UNL     1     -15.657 -12.778  17.756  0.00  0.00    +0.000 HD
BRANCH  13  16
ATOM     16  C   UNL     1     -17.494 -13.349  19.482  0.00  0.00    +0.038 A 
ATOM     17  C   UNL     1     -18.362 -13.086  20.551  0.00  0.00    -0.050 A 
ATOM     18  C   UNL     1     -18.127 -13.681  21.800  0.00  0.00    -0.061 A 
ATOM     19  C   UNL     1     -17.039 -14.535  21.978  0.00  0.00    -0.062 A 
ATOM     20  C   UNL     1     -16.187 -14.813  20.911  0.00  0.00    -0.061 A 
ATOM     21  C   UNL     1     -16.417 -14.223  19.665  0.00  0.00    -0.050 A 
ENDBRANCH  13  16
ENDBRANCH  11  12
ENDBRANCH   9  10
BRANCH   7  22
ATOM     22  C   UNL     1     -17.844 -10.078  11.202  0.00  0.00    +0.048 C 
BRANCH  22  23
ATOM     23  C   UNL     1     -19.348 -10.193  11.176  0.00  0.00    -0.028 A 
ATOM     24  C   UNL     1     -20.150  -9.135  11.626  0.00  0.00    -0.056 A 
ATOM     25  C   UNL     1     -21.530  -9.295  11.755  0.00  0.00    -0.047 A 
ATOM     26  C   UNL     1     -22.119 -10.509  11.414  0.00  0.00    +0.018 A 
ATOM     27  C   UNL     1     -21.350 -11.543  10.886  0.00  0.00    -0.047 A 
ATOM     28  C   UNL     1     -19.968 -11.384  10.765  0.00  0.00    -0.056 A 
ATOM     29 BR   UNL     1     -23.965 -10.773  11.721  0.00  0.00    -0.050 Br
ENDBRANCH  22  23
ENDBRANCH   7  22
TORSDOF 5
ENDMDL
MODEL 3
REMARK VINA RESULT:    -8.184      2.139      2.637
REMARK INTER + INTRA:         -11.383
REMARK INTER:                 -10.827
REMARK INTRA:                  -0.556
REMARK UNBOUND:                -0.806
REMARK  Name = 18a.sdf
REMARK  5 active torsions:
REMARK  status: ('A' for Active; 'I' for Inactive)
REMARK    1  A    between atoms: N_7  and  C_12
REMARK    2  A    between atoms: C_9  and  C_10
REMARK    3  A    between atoms: N_11  and  N_19
REMARK    4  A    between atoms: C_12  and  C_13
REMARK    5  A    between atoms: C_20  and  C_22
REMARK                            x       y       z     vdW  Elec       q    Type
REMARK                         _______ _______ _______ _____ _____    ______ ____
ROOT
ATOM      1  C   UNL     1     -16.193 -14.502  20.601  0.00  0.00    -0.061 A 
ATOM      2  C   UNL     1     -16.870 -14.408  21.810  0.00  0.00    -0.060 A 
ATOM      3  C   UNL     1     -18.050 -13.663  21.920  0.00  0.00    -0.038 A 
ATOM      4  C   UNL     1     -18.537 -13.007  20.775  0.00  0.00    +0.050 A 
ATOM      5  C   UNL     1     -17.899 -13.137  19.534  0.00  0.00    +0.009 A 
ATOM      6  C   UNL     1     -16.705 -13.885  19.456  0.00  0.00    -0.052 A 
ATOM      7  N   UNL     1     -19.616 -12.159  20.587  0.00  0.00    -0.342 N 
ATOM      8  C   UNL     1     -19.719 -11.832  19.257  0.00  0.00    +0.015 A 
ATOM      9  C   UNL     1     -18.683 -12.431  18.569  0.00  0.00    +0.020 A 
ENDROOT
BRANCH   9  10
ATOM     10  C   UNL     1     -18.441 -12.346  17.143  0.00  0.00    +0.055 C 
ATOM     11  N   UNL     1     -18.121 -13.414  16.481  0.00  0.00    -0.187 NA
BRANCH  11  12
ATOM     12  N   UNL     1     -17.899 -13.244  15.143  0.00  0.00    -0.203 N 
ATOM     13  C   UNL     1     -16.624 -12.922  14.699  0.00  0.00    +0.263 C 
ATOM     14  O   UNL     1     -15.641 -12.786  15.420  0.00  0.00    -0.268 OA
ATOM     15  H   UNL     1     -18.637 -13.348  14.499  0.00  0.00    +0.000 HD
BRANCH  13  16
ATOM     16  C   UNL     1     -16.465 -12.775  13.222  0.00  0.00    +0.038 A 
ATOM     17  C   UNL     1     -17.155 -11.802  12.485  0.00  0.00    -0.050 A 
ATOM     18  C   UNL     1     -16.958 -11.709  11.098  0.00  0.00    -0.061 A 
ATOM     19  C   UNL     1     -16.075 -12.576  10.455  0.00  0.00    -0.062 A 
ATOM     20  C   UNL     1     -15.373 -13.530  11.189  0.00  0.00    -0.061 A 
ATOM     21  C   UNL     1     -15.566 -13.626  12.570  0.00  0.00    -0.050 A 
ENDBRANCH  13  16
ENDBRANCH  11  12
ENDBRANCH   9  10
BRANCH   7  22
ATOM     22  C   UNL     1     -20.460 -11.572  21.630  0.00  0.00    +0.048 C 
BRANCH  22  23
ATOM     23  C   UNL     1     -20.058 -10.152  21.944  0.00  0.00    -0.028 A 
ATOM     24  C   UNL     1     -21.014  -9.223  22.377  0.00  0.00    -0.056 A 
ATOM     25  C   UNL     1     -20.682  -7.874  22.513  0.00  0.00    -0.047 A 
ATOM     26  C   UNL     1     -19.385  -7.451  22.237  0.00  0.00    +0.018 A 
ATOM     27  C   UNL     1     -18.402  -8.373  21.887  0.00  0.00    -0.047 A 
ATOM     28  C   UNL     1     -18.737  -9.721  21.743  0.00  0.00    -0.056 A 
ATOM     29 BR   UNL     1     -18.971  -5.608  22.284  0.00  0.00    -0.050 Br
ENDBRANCH  22  23
ENDBRANCH   7  22
TORSDOF 5
ENDMDL
