MODEL 1
REMARK VINA RESULT:    -8.588      0.000      0.000
REMARK INTER + INTRA:         -11.217
REMARK INTER:                 -10.597
REMARK INTRA:                  -0.620
REMARK UNBOUND:                -0.620
REMARK  Name = 18d.sdf
REMARK  4 active torsions:
REMARK  status: ('A' for Active; 'I' for Inactive)
REMARK    1  A    between atoms: C_9  and  C_10
REMARK    2  A    between atoms: N_11  and  N_12
REMARK    3  A    between atoms: C_13  and  C_15
REMARK    4  A    between atoms: C_16  and  C_17
REMARK                            x       y       z     vdW  Elec       q    Type
REMARK                         _______ _______ _______ _____ _____    ______ ____
ROOT
ATOM      1  C   UNL     1     -16.248 -14.990  20.455  0.00  0.00    -0.061 A 
ATOM      2  C   UNL     1     -16.672 -14.295  21.579  0.00  0.00    -0.060 A 
ATOM      3  C   UNL     1     -17.457 -13.144  21.457  0.00  0.00    -0.037 A 
ATOM      4  C   UNL     1     -17.795 -12.692  20.168  0.00  0.00    +0.057 A 
ATOM      5  C   UNL     1     -17.391 -13.390  19.018  0.00  0.00    +0.009 A 
ATOM      6  C   UNL     1     -16.603 -14.552  19.174  0.00  0.00    -0.052 A 
ATOM      7  N   UNL     1     -18.560 -11.597  19.756  0.00  0.00    -0.282 N 
ATOM      8  C   UNL     1     -18.590 -11.606  18.373  0.00  0.00    +0.023 A 
ATOM      9  C   UNL     1     -17.905 -12.698  17.880  0.00  0.00    +0.020 A 
ATOM     10  C   UNL     1     -19.193 -10.625  20.572  0.00  0.00    +0.263 C 
ATOM     11  O   UNL     1     -18.660 -10.333  21.648  0.00  0.00    -0.267 OA
ENDROOT
BRANCH  10  12
ATOM     12  C   UNL     1     -20.426  -9.914  20.165  0.00  0.00    +0.040 A 
ATOM     13  C   UNL     1     -20.363  -8.590  19.709  0.00  0.00    -0.049 A 
ATOM     14  C   UNL     1     -21.537  -7.875  19.498  0.00  0.00    -0.061 A 
ATOM     15  C   UNL     1     -22.771  -8.494  19.688  0.00  0.00    -0.062 A 
ATOM     16  C   UNL     1     -22.836  -9.840  20.056  0.00  0.00    -0.061 A 
ATOM     17  C   UNL     1     -21.664 -10.557  20.287  0.00  0.00    -0.049 A 
ENDBRANCH  10  12
BRANCH   9  18
ATOM     18  C   UNL     1     -17.759 -13.020  16.470  0.00  0.00    +0.055 C 
ATOM     19  N   UNL     1     -16.761 -12.525  15.813  0.00  0.00    -0.187 NA
BRANCH  19  20
ATOM     20  N   UNL     1     -16.663 -12.847  14.485  0.00  0.00    -0.203 N 
ATOM     21  C   UNL     1     -15.456 -12.653  13.824  0.00  0.00    +0.263 C 
ATOM     22  O   UNL     1     -14.431 -12.203  14.335  0.00  0.00    -0.268 OA
ATOM     23  H   UNL     1     -17.440 -13.213  14.005  0.00  0.00    +0.000 HD
BRANCH  21  24
ATOM     24  C   UNL     1     -15.423 -13.065  12.392  0.00  0.00    +0.038 A 
ATOM     25  C   UNL     1     -15.250 -12.137  11.356  0.00  0.00    -0.050 A 
ATOM     26  C   UNL     1     -15.249 -12.568  10.026  0.00  0.00    -0.061 A 
ATOM     27  C   UNL     1     -15.405 -13.922   9.726  0.00  0.00    -0.062 A 
ATOM     28  C   UNL     1     -15.540 -14.854  10.754  0.00  0.00    -0.061 A 
ATOM     29  C   UNL     1     -15.545 -14.428  12.084  0.00  0.00    -0.050 A 
ENDBRANCH  21  24
ENDBRANCH  19  20
ENDBRANCH   9  18
TORSDOF 4
ENDMDL
MODEL 2
REMARK VINA RESULT:    -8.177      1.738      4.727
REMARK INTER + INTRA:         -10.709
REMARK INTER:                 -10.651
REMARK INTRA:                  -0.058
REMARK UNBOUND:                -0.620
REMARK  Name = 18d.sdf
REMARK  4 active torsions:
REMARK  status: ('A' for Active; 'I' for Inactive)
REMARK    1  A    between atoms: C_9  and  C_10
REMARK    2  A    between atoms: N_11  and  N_12
REMARK    3  A    between atoms: C_13  and  C_15
REMARK    4  A    between atoms: C_16  and  C_17
REMARK                            x       y       z     vdW  Elec       q    Type
REMARK                         _______ _______ _______ _____ _____    ______ ____
ROOT
ATOM      1  C   UNL     1     -20.045  -7.781  16.354  0.00  0.00    -0.061 A 
ATOM      2  C   UNL     1     -20.137  -7.807  17.739  0.00  0.00    -0.060 A 
ATOM      3  C   UNL     1     -19.838  -8.970  18.456  0.00  0.00    -0.037 A 
ATOM      4  C   UNL     1     -19.456 -10.122  17.744  0.00  0.00    +0.057 A 
ATOM      5  C   UNL     1     -19.339 -10.112  16.345  0.00  0.00    +0.009 A 
ATOM      6  C   UNL     1     -19.644  -8.921  15.649  0.00  0.00    -0.052 A 
ATOM      7  N   UNL     1     -19.098 -11.396  18.193  0.00  0.00    -0.282 N 
ATOM      8  C   UNL     1     -18.803 -12.163  17.080  0.00  0.00    +0.023 A 
ATOM      9  C   UNL     1     -18.917 -11.411  15.929  0.00  0.00    +0.020 A 
ATOM     10  C   UNL     1     -19.047 -11.861  19.532  0.00  0.00    +0.263 C 
ATOM     11  O   UNL     1     -19.847 -11.383  20.345  0.00  0.00    -0.267 OA
ENDROOT
BRANCH  10  12
ATOM     12  C   UNL     1     -18.121 -12.926  19.978  0.00  0.00    +0.040 A 
ATOM     13  C   UNL     1     -18.275 -13.516  21.240  0.00  0.00    -0.049 A 
ATOM     14  C   UNL     1     -17.301 -14.385  21.720  0.00  0.00    -0.061 A 
ATOM     15  C   UNL     1     -16.204 -14.708  20.924  0.00  0.00    -0.062 A 
ATOM     16  C   UNL     1     -16.094 -14.190  19.631  0.00  0.00    -0.061 A 
ATOM     17  C   UNL     1     -17.058 -13.305  19.151  0.00  0.00    -0.049 A 
ENDBRANCH  10  12
BRANCH   9  18
ATOM     18  C   UNL     1     -18.658 -11.903  14.586  0.00  0.00    +0.055 C 
ATOM     19  N   UNL     1     -17.537 -12.502  14.342  0.00  0.00    -0.187 NA
BRANCH  19  20
ATOM     20  N   UNL     1     -17.329 -12.945  13.062  0.00  0.00    -0.203 N 
ATOM     21  C   UNL     1     -16.059 -13.363  12.684  0.00  0.00    +0.263 C 
ATOM     22  O   UNL     1     -15.068 -13.374  13.415  0.00  0.00    -0.268 OA
ATOM     23  H   UNL     1     -18.073 -12.967  12.418  0.00  0.00    +0.000 HD
BRANCH  21  24
ATOM     24  C   UNL     1     -15.926 -13.866  11.288  0.00  0.00    +0.038 A 
ATOM     25  C   UNL     1     -14.852 -14.671  10.886  0.00  0.00    -0.050 A 
ATOM     26  C   UNL     1     -14.758 -15.100   9.559  0.00  0.00    -0.061 A 
ATOM     27  C   UNL     1     -15.739 -14.740   8.634  0.00  0.00    -0.062 A 
ATOM     28  C   UNL     1     -16.830 -13.972   9.036  0.00  0.00    -0.061 A 
ATOM     29  C   UNL     1     -16.927 -13.538  10.360  0.00  0.00    -0.050 A 
ENDBRANCH  21  24
ENDBRANCH  19  20
ENDBRANCH   9  18
TORSDOF 4
ENDMDL
MODEL 3
REMARK VINA RESULT:    -8.174      3.553      8.417
REMARK INTER + INTRA:         -10.706
REMARK INTER:                 -10.040
REMARK INTRA:                  -0.666
REMARK UNBOUND:                -0.620
REMARK  Name = 18d.sdf
REMARK  4 active torsions:
REMARK  status: ('A' for Active; 'I' for Inactive)
REMARK    1  A    between atoms: C_9  and  C_10
REMARK    2  A    between atoms: N_11  and  N_12
REMARK    3  A    between atoms: C_13  and  C_15
REMARK    4  A    between atoms: C_16  and  C_17
REMARK                            x       y       z     vdW  Elec       q    Type
REMARK                         _______ _______ _______ _____ _____    ______ ____
ROOT
ATOM      1  C   UNL     1     -15.163 -14.598  10.919  0.00  0.00    -0.061 A 
ATOM      2  C   UNL     1     -15.853 -14.093   9.826  0.00  0.00    -0.060 A 
ATOM      3  C   UNL     1     -16.937 -13.227   9.999  0.00  0.00    -0.037 A 
ATOM      4  C   UNL     1     -17.328 -12.889  11.308  0.00  0.00    +0.057 A 
ATOM      5  C   UNL     1     -16.633 -13.375  12.428  0.00  0.00    +0.009 A 
ATOM      6  C   UNL     1     -15.539 -14.244  12.220  0.00  0.00    -0.052 A 
ATOM      7  N   UNL     1     -18.350 -12.056  11.769  0.00  0.00    -0.282 N 
ATOM      8  C   UNL     1     -18.302 -12.062  13.152  0.00  0.00    +0.023 A 
ATOM      9  C   UNL     1     -17.253 -12.840  13.597  0.00  0.00    +0.020 A 
ATOM     10  C   UNL     1     -19.292 -11.329  10.997  0.00  0.00    +0.263 C 
ATOM     11  O   UNL     1     -19.653 -11.811   9.917  0.00  0.00    -0.267 OA
ENDROOT
BRANCH  10  12
ATOM     12  C   UNL     1     -19.896 -10.057  11.453  0.00  0.00    +0.040 A 
ATOM     13  C   UNL     1     -19.176  -8.858  11.361  0.00  0.00    -0.049 A 
ATOM     14  C   UNL     1     -19.679  -7.703  11.952  0.00  0.00    -0.061 A 
ATOM     15  C   UNL     1     -20.920  -7.730  12.585  0.00  0.00    -0.062 A 
ATOM     16  C   UNL     1     -21.679  -8.903  12.599  0.00  0.00    -0.061 A 
ATOM     17  C   UNL     1     -21.173 -10.068  12.026  0.00  0.00    -0.049 A 
ENDBRANCH  10  12
BRANCH   9  18
ATOM     18  C   UNL     1     -16.906 -13.047  14.993  0.00  0.00    +0.055 C 
ATOM     19  N   UNL     1     -17.847 -13.305  15.843  0.00  0.00    -0.187 NA
BRANCH  19  20
ATOM     20  N   UNL     1     -17.478 -13.486  17.150  0.00  0.00    -0.203 N 
ATOM     21  C   UNL     1     -18.234 -12.900  18.158  0.00  0.00    +0.263 C 
ATOM     22  O   UNL     1     -19.237 -12.208  17.983  0.00  0.00    -0.268 OA
ATOM     23  H   UNL     1     -16.687 -14.027  17.372  0.00  0.00    +0.000 HD
BRANCH  21  24
ATOM     24  C   UNL     1     -17.789 -13.178  19.553  0.00  0.00    +0.038 A 
ATOM     25  C   UNL     1     -16.654 -13.953  19.830  0.00  0.00    -0.050 A 
ATOM     26  C   UNL     1     -16.289 -14.206  21.156  0.00  0.00    -0.061 A 
ATOM     27  C   UNL     1     -17.041 -13.677  22.205  0.00  0.00    -0.062 A 
ATOM     28  C   UNL     1     -18.148 -12.874  21.935  0.00  0.00    -0.061 A 
ATOM     29  C   UNL     1     -18.519 -12.621  20.614  0.00  0.00    -0.050 A 
ENDBRANCH  21  24
ENDBRANCH  19  20
ENDBRANCH   9  18
TORSDOF 4
ENDMDL
