MODEL 1
REMARK VINA RESULT:    -5.826      0.000      0.000
REMARK INTER + INTRA:          -6.220
REMARK INTER:                  -6.167
REMARK INTRA:                  -0.053
REMARK UNBOUND:                -0.053
REMARK  Name = 1.sdf
REMARK  1 active torsions:
REMARK  status: ('A' for Active; 'I' for Inactive)
REMARK    1  A    between atoms: C_9  and  C_10
REMARK                            x       y       z     vdW  Elec       q    Type
REMARK                         _______ _______ _______ _____ _____    ______ ____
ROOT
ATOM      1  C   UNL     1     -20.049 -12.610  21.459  0.00  0.00    -0.061 A 
ATOM      2  C   UNL     1     -20.168 -11.782  20.348  0.00  0.00    -0.060 A 
ATOM      3  C   UNL     1     -19.234 -11.831  19.309  0.00  0.00    -0.038 A 
ATOM      4  C   UNL     1     -18.175 -12.740  19.430  0.00  0.00    +0.047 A 
ATOM      5  C   UNL     1     -18.025 -13.584  20.532  0.00  0.00    +0.010 A 
ATOM      6  C   UNL     1     -18.987 -13.516  21.563  0.00  0.00    -0.052 A 
ATOM      7  N   UNL     1     -17.127 -12.994  18.577  0.00  0.00    -0.360 N 
ATOM      8  C   UNL     1     -16.315 -13.961  19.102  0.00  0.00    +0.013 A 
ATOM      9  C   UNL     1     -16.840 -14.358  20.318  0.00  0.00    +0.039 A 
ATOM     10  H   UNL     1     -16.982 -12.545  17.712  0.00  0.00    +0.000 HD
ENDROOT
BRANCH   9  11
ATOM     11  C   UNL     1     -16.266 -15.368  21.186  0.00  0.00    +0.152 C 
ATOM     12  O   UNL     1     -15.897 -15.154  22.338  0.00  0.00    -0.296 OA
ENDBRANCH   9  11
TORSDOF 1
ENDMDL
MODEL 2
REMARK VINA RESULT:    -5.806      2.551      4.370
REMARK INTER + INTRA:          -6.199
REMARK INTER:                  -6.145
REMARK INTRA:                  -0.054
REMARK UNBOUND:                -0.053
REMARK  Name = 1.sdf
REMARK  1 active torsions:
REMARK  status: ('A' for Active; 'I' for Inactive)
REMARK    1  A    between atoms: C_9  and  C_10
REMARK                            x       y       z     vdW  Elec       q    Type
REMARK                         _______ _______ _______ _____ _____    ______ ____
ROOT
ATOM      1  C   UNL     1     -16.270 -14.062  19.305  0.00  0.00    -0.061 A 
ATOM      2  C   UNL     1     -15.883 -14.705  20.477  0.00  0.00    -0.060 A 
ATOM      3  C   UNL     1     -16.685 -14.664  21.621  0.00  0.00    -0.038 A 
ATOM      4  C   UNL     1     -17.887 -13.949  21.546  0.00  0.00    +0.047 A 
ATOM      5  C   UNL     1     -18.305 -13.290  20.387  0.00  0.00    +0.010 A 
ATOM      6  C   UNL     1     -17.477 -13.355  19.246  0.00  0.00    -0.052 A 
ATOM      7  N   UNL     1     -18.853 -13.740  22.503  0.00  0.00    -0.360 N 
ATOM      8  C   UNL     1     -19.860 -12.966  21.996  0.00  0.00    +0.013 A 
ATOM      9  C   UNL     1     -19.560 -12.667  20.680  0.00  0.00    +0.039 A 
ATOM     10  H   UNL     1     -18.823 -14.095  23.421  0.00  0.00    +0.000 HD
ENDROOT
BRANCH   9  11
ATOM     11  C   UNL     1     -20.384 -11.866  19.796  0.00  0.00    +0.152 C 
ATOM     12  O   UNL     1     -20.885 -12.285  18.756  0.00  0.00    -0.296 OA
ENDBRANCH   9  11
TORSDOF 1
ENDMDL
MODEL 3
REMARK VINA RESULT:    -5.748      1.439      2.723
REMARK INTER + INTRA:          -6.137
REMARK INTER:                  -6.162
REMARK INTRA:                   0.025
REMARK UNBOUND:                -0.053
REMARK  Name = 1.sdf
REMARK  1 active torsions:
REMARK  status: ('A' for Active; 'I' for Inactive)
REMARK    1  A    between atoms: C_9  and  C_10
REMARK                            x       y       z     vdW  Elec       q    Type
REMARK                         _______ _______ _______ _____ _____    ______ ____
ROOT
ATOM      1  C   UNL     1     -16.681 -12.968  17.660  0.00  0.00    -0.061 A 
ATOM      2  C   UNL     1     -17.831 -12.204  17.486  0.00  0.00    -0.060 A 
ATOM      3  C   UNL     1     -18.789 -12.103  18.498  0.00  0.00    -0.038 A 
ATOM      4  C   UNL     1     -18.553 -12.801  19.689  0.00  0.00    +0.047 A 
ATOM      5  C   UNL     1     -17.410 -13.579  19.896  0.00  0.00    +0.010 A 
ATOM      6  C   UNL     1     -16.457 -13.657  18.858  0.00  0.00    -0.052 A 
ATOM      7  N   UNL     1     -19.314 -12.885  20.831  0.00  0.00    -0.360 N 
ATOM      8  C   UNL     1     -18.701 -13.693  21.748  0.00  0.00    +0.013 A 
ATOM      9  C   UNL     1     -17.512 -14.143  21.207  0.00  0.00    +0.039 A 
ATOM     10  H   UNL     1     -20.177 -12.429  20.968  0.00  0.00    +0.000 HD
ENDROOT
BRANCH   9  11
ATOM     11  C   UNL     1     -16.572 -15.025  21.873  0.00  0.00    +0.152 C 
ATOM     12  O   UNL     1     -15.855 -15.832  21.287  0.00  0.00    -0.296 OA
ENDBRANCH   9  11
TORSDOF 1
ENDMDL
