MODEL 1
REMARK VINA RESULT:    -8.956      0.000      0.000
REMARK INTER + INTRA:         -13.005
REMARK INTER:                 -12.097
REMARK INTRA:                  -0.908
REMARK UNBOUND:                -0.908
REMARK  Name = 22c.sdf
REMARK  7 active torsions:
REMARK  status: ('A' for Active; 'I' for Inactive)
REMARK    1  A    between atoms: N_7  and  C_12
REMARK    2  A    between atoms: C_9  and  C_10
REMARK    3  A    between atoms: N_11  and  N_19
REMARK    4  A    between atoms: C_12  and  C_13
REMARK    5  A    between atoms: C_20  and  C_22
REMARK    6  A    between atoms: C_25  and  O_29
REMARK    7  A    between atoms: O_29  and  C_30
REMARK                            x       y       z     vdW  Elec       q    Type
REMARK                         _______ _______ _______ _____ _____    ______ ____
ROOT
ATOM      1  C   UNL     1     -16.329 -14.711  20.996  0.00  0.00    -0.061 A 
ATOM      2  C   UNL     1     -17.008 -14.031  21.995  0.00  0.00    -0.060 A 
ATOM      3  C   UNL     1     -17.876 -12.971  21.692  0.00  0.00    -0.038 A 
ATOM      4  C   UNL     1     -18.034 -12.599  20.345  0.00  0.00    +0.050 A 
ATOM      5  C   UNL     1     -17.406 -13.318  19.316  0.00  0.00    +0.009 A 
ATOM      6  C   UNL     1     -16.535 -14.379  19.654  0.00  0.00    -0.052 A 
ATOM      7  N   UNL     1     -18.735 -11.566  19.743  0.00  0.00    -0.342 N 
ATOM      8  C   UNL     1     -18.640 -11.683  18.377  0.00  0.00    +0.015 A 
ATOM      9  C   UNL     1     -17.845 -12.770  18.072  0.00  0.00    +0.020 A 
ENDROOT
BRANCH   9  10
ATOM     10  C   UNL     1     -17.520 -13.245  16.741  0.00  0.00    +0.055 C 
ATOM     11  N   UNL     1     -18.136 -12.763  15.714  0.00  0.00    -0.187 NA
BRANCH  11  12
ATOM     12  N   UNL     1     -17.775 -13.278  14.494  0.00  0.00    -0.203 N 
ATOM     13  C   UNL     1     -17.002 -12.514  13.635  0.00  0.00    +0.263 C 
ATOM     14  O   UNL     1     -16.579 -11.382  13.880  0.00  0.00    -0.268 OA
ATOM     15  H   UNL     1     -18.063 -14.182  14.233  0.00  0.00    +0.000 HD
BRANCH  13  16
ATOM     16  C   UNL     1     -16.633 -13.148  12.333  0.00  0.00    +0.039 A 
ATOM     17  C   UNL     1     -17.255 -12.814  11.125  0.00  0.00    -0.046 A 
ATOM     18  C   UNL     1     -16.876 -13.465   9.943  0.00  0.00    -0.019 A 
ATOM     19  C   UNL     1     -15.863 -14.429   9.946  0.00  0.00    +0.120 A 
ATOM     20  C   UNL     1     -15.224 -14.745  11.143  0.00  0.00    -0.019 A 
ATOM     21  C   UNL     1     -15.605 -14.104  12.330  0.00  0.00    -0.046 A 
BRANCH  19  22
ATOM     22  O   UNL     1     -15.631 -15.032   8.741  0.00  0.00    -0.495 OA
ATOM     23  C   UNL     1     -14.374 -14.765   8.128  0.00  0.00    +0.079 C 
ENDBRANCH  19  22
ENDBRANCH  13  16
ENDBRANCH  11  12
ENDBRANCH   9  10
BRANCH   7  24
ATOM     24  C   UNL     1     -19.364 -10.418  20.405  0.00  0.00    +0.048 C 
BRANCH  24  25
ATOM     25  C   UNL     1     -20.627 -10.807  21.135  0.00  0.00    -0.028 A 
ATOM     26  C   UNL     1     -21.616 -11.560  20.485  0.00  0.00    -0.055 A 
ATOM     27  C   UNL     1     -22.860 -11.763  21.084  0.00  0.00    -0.043 A 
ATOM     28  C   UNL     1     -23.112 -11.242  22.351  0.00  0.00    +0.041 A 
ATOM     29  C   UNL     1     -22.106 -10.582  23.052  0.00  0.00    -0.043 A 
ATOM     30  C   UNL     1     -20.866 -10.366  22.447  0.00  0.00    -0.055 A 
ATOM     31 CL   UNL     1     -24.687 -11.375  23.030  0.00  0.00    -0.084 Cl
ENDBRANCH  24  25
ENDBRANCH   7  24
TORSDOF 6
ENDMDL
MODEL 2
REMARK VINA RESULT:    -8.727      2.013      2.564
REMARK INTER + INTRA:         -12.696
REMARK INTER:                 -11.709
REMARK INTRA:                  -0.987
REMARK UNBOUND:                -0.908
REMARK  Name = 22c.sdf
REMARK  7 active torsions:
REMARK  status: ('A' for Active; 'I' for Inactive)
REMARK    1  A    between atoms: N_7  and  C_12
REMARK    2  A    between atoms: C_9  and  C_10
REMARK    3  A    between atoms: N_11  and  N_19
REMARK    4  A    between atoms: C_12  and  C_13
REMARK    5  A    between atoms: C_20  and  C_22
REMARK    6  A    between atoms: C_25  and  O_29
REMARK    7  A    between atoms: O_29  and  C_30
REMARK                            x       y       z     vdW  Elec       q    Type
REMARK                         _______ _______ _______ _____ _____    ______ ____
ROOT
ATOM      1  C   UNL     1     -16.256 -14.674  21.211  0.00  0.00    -0.061 A 
ATOM      2  C   UNL     1     -17.210 -14.333  22.158  0.00  0.00    -0.060 A 
ATOM      3  C   UNL     1     -18.307 -13.524  21.825  0.00  0.00    -0.038 A 
ATOM      4  C   UNL     1     -18.414 -13.051  20.505  0.00  0.00    +0.050 A 
ATOM      5  C   UNL     1     -17.495 -13.440  19.519  0.00  0.00    +0.009 A 
ATOM      6  C   UNL     1     -16.398 -14.252  19.886  0.00  0.00    -0.052 A 
ATOM      7  N   UNL     1     -19.311 -12.186  19.898  0.00  0.00    -0.342 N 
ATOM      8  C   UNL     1     -19.035 -12.107  18.554  0.00  0.00    +0.015 A 
ATOM      9  C   UNL     1     -17.931 -12.888  18.275  0.00  0.00    +0.020 A 
ENDROOT
BRANCH   9  10
ATOM     10  C   UNL     1     -17.337 -13.092  16.969  0.00  0.00    +0.055 C 
ATOM     11  N   UNL     1     -18.091 -13.285  15.938  0.00  0.00    -0.187 NA
BRANCH  11  12
ATOM     12  N   UNL     1     -17.445 -13.481  14.743  0.00  0.00    -0.203 N 
ATOM     13  C   UNL     1     -17.336 -12.430  13.848  0.00  0.00    +0.263 C 
ATOM     14  O   UNL     1     -17.766 -11.290  14.039  0.00  0.00    -0.268 OA
ATOM     15  H   UNL     1     -17.062 -14.362  14.525  0.00  0.00    +0.000 HD
BRANCH  13  16
ATOM     16  C   UNL     1     -16.604 -12.714  12.577  0.00  0.00    +0.039 A 
ATOM     17  C   UNL     1     -15.955 -11.720  11.838  0.00  0.00    -0.046 A 
ATOM     18  C   UNL     1     -15.306 -12.051  10.641  0.00  0.00    -0.019 A 
ATOM     19  C   UNL     1     -15.273 -13.373  10.184  0.00  0.00    +0.120 A 
ATOM     20  C   UNL     1     -15.895 -14.369  10.930  0.00  0.00    -0.019 A 
ATOM     21  C   UNL     1     -16.554 -14.042  12.123  0.00  0.00    -0.046 A 
BRANCH  19  22
ATOM     22  O   UNL     1     -14.661 -13.553   8.974  0.00  0.00    -0.495 OA
ATOM     23  C   UNL     1     -14.797 -14.839   8.378  0.00  0.00    +0.079 C 
ENDBRANCH  19  22
ENDBRANCH  13  16
ENDBRANCH  11  12
ENDBRANCH   9  10
BRANCH   7  24
ATOM     24  C   UNL     1     -20.315 -11.344  20.559  0.00  0.00    +0.048 C 
BRANCH  24  25
ATOM     25  C   UNL     1     -19.836  -9.924  20.736  0.00  0.00    -0.028 A 
ATOM     26  C   UNL     1     -18.830  -9.627  21.667  0.00  0.00    -0.055 A 
ATOM     27  C   UNL     1     -18.514  -8.302  21.971  0.00  0.00    -0.043 A 
ATOM     28  C   UNL     1     -19.179  -7.265  21.322  0.00  0.00    +0.041 A 
ATOM     29  C   UNL     1     -20.106  -7.542  20.320  0.00  0.00    -0.043 A 
ATOM     30  C   UNL     1     -20.433  -8.869  20.026  0.00  0.00    -0.055 A 
ATOM     31 CL   UNL     1     -18.886  -5.637  21.793  0.00  0.00    -0.084 Cl
ENDBRANCH  24  25
ENDBRANCH   7  24
TORSDOF 6
ENDMDL
MODEL 3
REMARK VINA RESULT:    -6.991      4.559      6.695
REMARK INTER + INTRA:         -10.351
REMARK INTER:                  -9.865
REMARK INTRA:                  -0.486
REMARK UNBOUND:                -0.908
REMARK  Name = 22c.sdf
REMARK  7 active torsions:
REMARK  status: ('A' for Active; 'I' for Inactive)
REMARK    1  A    between atoms: N_7  and  C_12
REMARK    2  A    between atoms: C_9  and  C_10
REMARK    3  A    between atoms: N_11  and  N_19
REMARK    4  A    between atoms: C_12  and  C_13
REMARK    5  A    between atoms: C_20  and  C_22
REMARK    6  A    between atoms: C_25  and  O_29
REMARK    7  A    between atoms: O_29  and  C_30
REMARK                            x       y       z     vdW  Elec       q    Type
REMARK                         _______ _______ _______ _____ _____    ______ ____
ROOT
ATOM      1  C   UNL     1     -14.796 -10.987  13.036  0.00  0.00    -0.061 A 
ATOM      2  C   UNL     1     -14.272 -11.004  14.320  0.00  0.00    -0.060 A 
ATOM      3  C   UNL     1     -15.108 -11.031  15.446  0.00  0.00    -0.038 A 
ATOM      4  C   UNL     1     -16.500 -11.027  15.246  0.00  0.00    +0.050 A 
ATOM      5  C   UNL     1     -17.047 -11.076  13.955  0.00  0.00    +0.009 A 
ATOM      6  C   UNL     1     -16.178 -11.044  12.840  0.00  0.00    -0.052 A 
ATOM      7  N   UNL     1     -17.565 -10.966  16.131  0.00  0.00    -0.342 N 
ATOM      8  C   UNL     1     -18.746 -11.075  15.436  0.00  0.00    +0.015 A 
ATOM      9  C   UNL     1     -18.467 -11.169  14.087  0.00  0.00    +0.020 A 
ENDROOT
BRANCH   9  10
ATOM     10  C   UNL     1     -19.438 -11.323  13.022  0.00  0.00    +0.055 C 
ATOM     11  N   UNL     1     -19.367 -10.579  11.969  0.00  0.00    -0.187 NA
BRANCH  11  12
ATOM     12  N   UNL     1     -20.333 -10.784  11.016  0.00  0.00    -0.203 N 
ATOM     13  C   UNL     1     -20.208 -11.848  10.138  0.00  0.00    +0.263 C 
ATOM     14  O   UNL     1     -19.287 -12.668  10.146  0.00  0.00    -0.268 OA
ATOM     15  H   UNL     1     -21.107 -10.178  10.957  0.00  0.00    +0.000 HD
BRANCH  13  16
ATOM     16  C   UNL     1     -21.308 -12.018   9.141  0.00  0.00    +0.039 A 
ATOM     17  C   UNL     1     -21.794 -13.271   8.755  0.00  0.00    -0.046 A 
ATOM     18  C   UNL     1     -22.812 -13.360   7.796  0.00  0.00    -0.019 A 
ATOM     19  C   UNL     1     -23.373 -12.208   7.235  0.00  0.00    +0.120 A 
ATOM     20  C   UNL     1     -22.910 -10.957   7.637  0.00  0.00    -0.019 A 
ATOM     21  C   UNL     1     -21.886 -10.864   8.589  0.00  0.00    -0.046 A 
BRANCH  19  22
ATOM     22  O   UNL     1     -24.315 -12.431   6.269  0.00  0.00    -0.495 OA
ATOM     23  C   UNL     1     -25.658 -12.097   6.600  0.00  0.00    +0.079 C 
ENDBRANCH  19  22
ENDBRANCH  13  16
ENDBRANCH  11  12
ENDBRANCH   9  10
BRANCH   7  24
ATOM     24  C   UNL     1     -17.507 -10.677  17.568  0.00  0.00    +0.048 C 
BRANCH  24  25
ATOM     25  C   UNL     1     -17.375 -11.933  18.394  0.00  0.00    -0.028 A 
ATOM     26  C   UNL     1     -18.111 -12.081  19.579  0.00  0.00    -0.055 A 
ATOM     27  C   UNL     1     -17.857 -13.148  20.442  0.00  0.00    -0.043 A 
ATOM     28  C   UNL     1     -16.888 -14.092  20.110  0.00  0.00    +0.041 A 
ATOM     29  C   UNL     1     -16.222 -14.017  18.889  0.00  0.00    -0.043 A 
ATOM     30  C   UNL     1     -16.466 -12.941  18.032  0.00  0.00    -0.055 A 
ATOM     31 CL   UNL     1     -16.482 -15.328  21.235  0.00  0.00    -0.084 Cl
ENDBRANCH  24  25
ENDBRANCH   7  24
TORSDOF 6
ENDMDL
