MODEL 1
REMARK VINA RESULT:    -8.243      0.000      0.000
REMARK INTER + INTRA:         -12.610
REMARK INTER:                 -11.616
REMARK INTRA:                  -0.994
REMARK UNBOUND:                -0.994
REMARK  Name = 23a.sdf
REMARK  9 active torsions:
REMARK  status: ('A' for Active; 'I' for Inactive)
REMARK    1  A    between atoms: N_7  and  C_12
REMARK    2  A    between atoms: C_9  and  C_10
REMARK    3  A    between atoms: N_11  and  N_19
REMARK    4  A    between atoms: C_12  and  C_13
REMARK    5  A    between atoms: C_20  and  C_22
REMARK    6  A    between atoms: C_24  and  O_30
REMARK    7  A    between atoms: C_25  and  O_29
REMARK    8  A    between atoms: O_29  and  C_32
REMARK    9  A    between atoms: O_30  and  C_31
REMARK                            x       y       z     vdW  Elec       q    Type
REMARK                         _______ _______ _______ _____ _____    ______ ____
ROOT
ATOM      1  C   UNL     1     -16.394 -14.939  20.644  0.00  0.00    -0.061 A 
ATOM      2  C   UNL     1     -16.742 -14.382  21.863  0.00  0.00    -0.060 A 
ATOM      3  C   UNL     1     -17.536 -13.229  21.919  0.00  0.00    -0.038 A 
ATOM      4  C   UNL     1     -17.880 -12.560  20.727  0.00  0.00    +0.050 A 
ATOM      5  C   UNL     1     -17.572 -13.136  19.482  0.00  0.00    +0.009 A 
ATOM      6  C   UNL     1     -16.840 -14.353  19.455  0.00  0.00    -0.052 A 
ATOM      7  N   UNL     1     -18.523 -11.353  20.480  0.00  0.00    -0.342 N 
ATOM      8  C   UNL     1     -18.689 -11.214  19.116  0.00  0.00    +0.015 A 
ATOM      9  C   UNL     1     -18.147 -12.306  18.464  0.00  0.00    +0.020 A 
ENDROOT
BRANCH   9  10
ATOM     10  C   UNL     1     -18.166 -12.563  17.034  0.00  0.00    +0.055 C 
ATOM     11  N   UNL     1     -17.066 -12.487  16.341  0.00  0.00    -0.187 NA
BRANCH  11  12
ATOM     12  N   UNL     1     -17.162 -12.722  14.993  0.00  0.00    -0.203 N 
ATOM     13  C   UNL     1     -16.007 -12.872  14.243  0.00  0.00    +0.263 C 
ATOM     14  O   UNL     1     -14.854 -12.810  14.699  0.00  0.00    -0.268 OA
ATOM     15  H   UNL     1     -18.044 -12.783  14.563  0.00  0.00    +0.000 HD
BRANCH  13  16
ATOM     16  C   UNL     1     -16.175 -13.171  12.794  0.00  0.00    +0.042 A 
ATOM     17  C   UNL     1     -17.269 -12.694  12.064  0.00  0.00    -0.004 A 
ATOM     18  C   UNL     1     -17.441 -13.064  10.722  0.00  0.00    +0.162 A 
ATOM     19  C   UNL     1     -16.476 -13.875  10.085  0.00  0.00    +0.162 A 
ATOM     20  C   UNL     1     -15.341 -14.274  10.796  0.00  0.00    -0.016 A 
ATOM     21  C   UNL     1     -15.200 -13.937  12.145  0.00  0.00    -0.046 A 
BRANCH  19  22
ATOM     22  O   UNL     1     -16.730 -14.221   8.780  0.00  0.00    -0.491 OA
ATOM     23  C   UNL     1     -15.744 -14.984   8.094  0.00  0.00    +0.079 C 
ENDBRANCH  19  22
BRANCH  18  24
ATOM     24  O   UNL     1     -18.518 -12.685   9.957  0.00  0.00    -0.491 OA
ATOM     25  C   UNL     1     -19.465 -11.804  10.546  0.00  0.00    +0.079 C 
ENDBRANCH  18  24
ENDBRANCH  13  16
ENDBRANCH  11  12
ENDBRANCH   9  10
BRANCH   7  26
ATOM     26  C   UNL     1     -18.858 -10.269  21.427  0.00  0.00    +0.048 C 
BRANCH  26  27
ATOM     27  C   UNL     1     -20.103 -10.530  22.249  0.00  0.00    -0.028 A 
ATOM     28  C   UNL     1     -21.257 -11.055  21.645  0.00  0.00    -0.056 A 
ATOM     29  C   UNL     1     -22.489 -10.998  22.304  0.00  0.00    -0.047 A 
ATOM     30  C   UNL     1     -22.556 -10.503  23.604  0.00  0.00    +0.018 A 
ATOM     31  C   UNL     1     -21.393 -10.136  24.278  0.00  0.00    -0.047 A 
ATOM     32  C   UNL     1     -20.170 -10.144  23.602  0.00  0.00    -0.056 A 
ATOM     33 BR   UNL     1     -24.240 -10.207  24.412  0.00  0.00    -0.050 Br
ENDBRANCH  26  27
ENDBRANCH   7  26
TORSDOF 7
ENDMDL
MODEL 2
REMARK VINA RESULT:    -8.044      1.996      2.500
REMARK INTER + INTRA:         -12.329
REMARK INTER:                 -11.830
REMARK INTRA:                  -0.499
REMARK UNBOUND:                -0.994
REMARK  Name = 23a.sdf
REMARK  9 active torsions:
REMARK  status: ('A' for Active; 'I' for Inactive)
REMARK    1  A    between atoms: N_7  and  C_12
REMARK    2  A    between atoms: C_9  and  C_10
REMARK    3  A    between atoms: N_11  and  N_19
REMARK    4  A    between atoms: C_12  and  C_13
REMARK    5  A    between atoms: C_20  and  C_22
REMARK    6  A    between atoms: C_24  and  O_30
REMARK    7  A    between atoms: C_25  and  O_29
REMARK    8  A    between atoms: O_29  and  C_32
REMARK    9  A    between atoms: O_30  and  C_31
REMARK                            x       y       z     vdW  Elec       q    Type
REMARK                         _______ _______ _______ _____ _____    ______ ____
ROOT
ATOM      1  C   UNL     1     -16.163 -14.735  20.884  0.00  0.00    -0.061 A 
ATOM      2  C   UNL     1     -17.040 -14.372  21.892  0.00  0.00    -0.060 A 
ATOM      3  C   UNL     1     -18.174 -13.600  21.607  0.00  0.00    -0.038 A 
ATOM      4  C   UNL     1     -18.359 -13.086  20.309  0.00  0.00    +0.050 A 
ATOM      5  C   UNL     1     -17.502 -13.481  19.265  0.00  0.00    +0.009 A 
ATOM      6  C   UNL     1     -16.409 -14.336  19.566  0.00  0.00    -0.052 A 
ATOM      7  N   UNL     1     -19.288 -12.201  19.772  0.00  0.00    -0.342 N 
ATOM      8  C   UNL     1     -19.072 -12.108  18.412  0.00  0.00    +0.015 A 
ATOM      9  C   UNL     1     -18.002 -12.906  18.051  0.00  0.00    +0.020 A 
ENDROOT
BRANCH   9  10
ATOM     10  C   UNL     1     -17.494 -13.123  16.707  0.00  0.00    +0.055 C 
ATOM     11  N   UNL     1     -18.273 -12.954  15.677  0.00  0.00    -0.187 NA
BRANCH  11  12
ATOM     12  N   UNL     1     -17.732 -13.195  14.441  0.00  0.00    -0.203 N 
ATOM     13  C   UNL     1     -17.171 -12.150  13.725  0.00  0.00    +0.263 C 
ATOM     14  O   UNL     1     -17.112 -10.975  14.119  0.00  0.00    -0.268 OA
ATOM     15  H   UNL     1     -17.744 -14.104  14.064  0.00  0.00    +0.000 HD
BRANCH  13  16
ATOM     16  C   UNL     1     -16.559 -12.483  12.410  0.00  0.00    +0.042 A 
ATOM     17  C   UNL     1     -17.114 -13.446  11.559  0.00  0.00    -0.004 A 
ATOM     18  C   UNL     1     -16.466 -13.795  10.365  0.00  0.00    +0.162 A 
ATOM     19  C   UNL     1     -15.277 -13.131   9.988  0.00  0.00    +0.162 A 
ATOM     20  C   UNL     1     -14.777 -12.109  10.799  0.00  0.00    -0.016 A 
ATOM     21  C   UNL     1     -15.406 -11.798  12.008  0.00  0.00    -0.046 A 
BRANCH  19  22
ATOM     22  O   UNL     1     -14.684 -13.551   8.822  0.00  0.00    -0.491 OA
ATOM     23  C   UNL     1     -13.959 -14.775   8.853  0.00  0.00    +0.079 C 
ENDBRANCH  19  22
BRANCH  18  24
ATOM     24  O   UNL     1     -16.916 -14.771   9.508  0.00  0.00    -0.491 OA
ATOM     25  C   UNL     1     -17.624 -14.351   8.350  0.00  0.00    +0.079 C 
ENDBRANCH  18  24
ENDBRANCH  13  16
ENDBRANCH  11  12
ENDBRANCH   9  10
BRANCH   7  26
ATOM     26  C   UNL     1     -20.261 -11.339  20.475  0.00  0.00    +0.048 C 
BRANCH  26  27
ATOM     27  C   UNL     1     -19.639 -10.143  21.168  0.00  0.00    -0.028 A 
ATOM     28  C   UNL     1     -19.993  -9.824  22.489  0.00  0.00    -0.056 A 
ATOM     29  C   UNL     1     -19.685  -8.568  23.019  0.00  0.00    -0.047 A 
ATOM     30  C   UNL     1     -18.943  -7.662  22.266  0.00  0.00    +0.018 A 
ATOM     31  C   UNL     1     -18.441  -8.027  21.019  0.00  0.00    -0.047 A 
ATOM     32  C   UNL     1     -18.793  -9.263  20.468  0.00  0.00    -0.056 A 
ATOM     33 BR   UNL     1     -18.723  -5.886  22.880  0.00  0.00    -0.050 Br
ENDBRANCH  26  27
ENDBRANCH   7  26
TORSDOF 7
ENDMDL
MODEL 3
REMARK VINA RESULT:    -7.880      1.578      1.930
REMARK INTER + INTRA:         -12.099
REMARK INTER:                 -11.474
REMARK INTRA:                  -0.624
REMARK UNBOUND:                -0.994
REMARK  Name = 23a.sdf
REMARK  9 active torsions:
REMARK  status: ('A' for Active; 'I' for Inactive)
REMARK    1  A    between atoms: N_7  and  C_12
REMARK    2  A    between atoms: C_9  and  C_10
REMARK    3  A    between atoms: N_11  and  N_19
REMARK    4  A    between atoms: C_12  and  C_13
REMARK    5  A    between atoms: C_20  and  C_22
REMARK    6  A    between atoms: C_24  and  O_30
REMARK    7  A    between atoms: C_25  and  O_29
REMARK    8  A    between atoms: O_29  and  C_32
REMARK    9  A    between atoms: O_30  and  C_31
REMARK                            x       y       z     vdW  Elec       q    Type
REMARK                         _______ _______ _______ _____ _____    ______ ____
ROOT
ATOM      1  C   UNL     1     -16.264 -14.801  20.858  0.00  0.00    -0.061 A 
ATOM      2  C   UNL     1     -17.133 -14.296  21.810  0.00  0.00    -0.060 A 
ATOM      3  C   UNL     1     -18.062 -13.304  21.473  0.00  0.00    -0.038 A 
ATOM      4  C   UNL     1     -18.030 -12.726  20.189  0.00  0.00    +0.050 A 
ATOM      5  C   UNL     1     -17.184 -13.257  19.198  0.00  0.00    +0.009 A 
ATOM      6  C   UNL     1     -16.313 -14.323  19.544  0.00  0.00    -0.052 A 
ATOM      7  N   UNL     1     -18.716 -11.657  19.622  0.00  0.00    -0.342 N 
ATOM      8  C   UNL     1     -18.372 -11.572  18.288  0.00  0.00    +0.015 A 
ATOM      9  C   UNL     1     -17.455 -12.559  17.975  0.00  0.00    +0.020 A 
ENDROOT
BRANCH   9  10
ATOM     10  C   UNL     1     -16.889 -12.837  16.666  0.00  0.00    +0.055 C 
ATOM     11  N   UNL     1     -16.888 -11.917  15.745  0.00  0.00    -0.187 NA
BRANCH  11  12
ATOM     12  N   UNL     1     -16.355 -12.255  14.527  0.00  0.00    -0.203 N 
ATOM     13  C   UNL     1     -17.181 -12.329  13.418  0.00  0.00    +0.263 C 
ATOM     14  O   UNL     1     -18.402 -12.108  13.430  0.00  0.00    -0.268 OA
ATOM     15  H   UNL     1     -15.393 -12.445  14.443  0.00  0.00    +0.000 HD
BRANCH  13  16
ATOM     16  C   UNL     1     -16.538 -12.656  12.116  0.00  0.00    +0.042 A 
ATOM     17  C   UNL     1     -17.008 -13.690  11.299  0.00  0.00    -0.004 A 
ATOM     18  C   UNL     1     -16.326 -14.026  10.119  0.00  0.00    +0.162 A 
ATOM     19  C   UNL     1     -15.194 -13.280   9.722  0.00  0.00    +0.162 A 
ATOM     20  C   UNL     1     -14.783 -12.193  10.498  0.00  0.00    -0.016 A 
ATOM     21  C   UNL     1     -15.442 -11.893  11.694  0.00  0.00    -0.046 A 
BRANCH  19  22
ATOM     22  O   UNL     1     -14.562 -13.690   8.573  0.00  0.00    -0.491 OA
ATOM     23  C   UNL     1     -13.625 -14.756   8.678  0.00  0.00    +0.079 C 
ENDBRANCH  19  22
BRANCH  18  24
ATOM     24  O   UNL     1     -16.691 -15.064   9.296  0.00  0.00    -0.491 OA
ATOM     25  C   UNL     1     -17.418 -14.743   8.118  0.00  0.00    +0.079 C 
ENDBRANCH  18  24
ENDBRANCH  13  16
ENDBRANCH  11  12
ENDBRANCH   9  10
BRANCH   7  26
ATOM     26  C   UNL     1     -19.553 -10.637  20.286  0.00  0.00    +0.048 C 
BRANCH  26  27
ATOM     27  C   UNL     1     -20.858 -11.173  20.839  0.00  0.00    -0.028 A 
ATOM     28  C   UNL     1     -21.653 -12.039  20.070  0.00  0.00    -0.056 A 
ATOM     29  C   UNL     1     -22.984 -12.277  20.426  0.00  0.00    -0.047 A 
ATOM     30  C   UNL     1     -23.497 -11.728  21.598  0.00  0.00    +0.018 A 
ATOM     31  C   UNL     1     -22.671 -11.006  22.457  0.00  0.00    -0.047 A 
ATOM     32  C   UNL     1     -21.356 -10.724  22.077  0.00  0.00    -0.056 A 
ATOM     33 BR   UNL     1     -25.348 -11.853  21.964  0.00  0.00    -0.050 Br
ENDBRANCH  26  27
ENDBRANCH   7  26
TORSDOF 7
ENDMDL
