MODEL 1
REMARK VINA RESULT:    -8.285      0.000      0.000
REMARK INTER + INTRA:         -12.268
REMARK INTER:                 -11.676
REMARK INTRA:                  -0.592
REMARK UNBOUND:                -0.592
REMARK  Name = 23c.sdf
REMARK  9 active torsions:
REMARK  status: ('A' for Active; 'I' for Inactive)
REMARK    1  A    between atoms: N_7  and  C_12
REMARK    2  A    between atoms: C_9  and  C_10
REMARK    3  A    between atoms: N_11  and  N_19
REMARK    4  A    between atoms: C_12  and  C_13
REMARK    5  A    between atoms: C_20  and  C_22
REMARK    6  A    between atoms: C_24  and  O_30
REMARK    7  A    between atoms: C_25  and  O_29
REMARK    8  A    between atoms: O_29  and  C_32
REMARK    9  A    between atoms: O_30  and  C_31
REMARK                            x       y       z     vdW  Elec       q    Type
REMARK                         _______ _______ _______ _____ _____    ______ ____
ROOT
ATOM      1  C   UNL     1     -16.290 -14.897  20.431  0.00  0.00    -0.061 A 
ATOM      2  C   UNL     1     -16.664 -14.284  21.621  0.00  0.00    -0.060 A 
ATOM      3  C   UNL     1     -17.427 -13.112  21.616  0.00  0.00    -0.038 A 
ATOM      4  C   UNL     1     -17.813 -12.571  20.378  0.00  0.00    +0.050 A 
ATOM      5  C   UNL     1     -17.484 -13.196  19.168  0.00  0.00    +0.009 A 
ATOM      6  C   UNL     1     -16.699 -14.370  19.203  0.00  0.00    -0.052 A 
ATOM      7  N   UNL     1     -18.516 -11.423  20.060  0.00  0.00    -0.342 N 
ATOM      8  C   UNL     1     -18.697 -11.351  18.701  0.00  0.00    +0.015 A 
ATOM      9  C   UNL     1     -18.079 -12.437  18.111  0.00  0.00    +0.020 A 
ENDROOT
BRANCH   9  10
ATOM     10  C   UNL     1     -18.050 -12.732  16.695  0.00  0.00    +0.055 C 
ATOM     11  N   UNL     1     -17.068 -12.307  15.969  0.00  0.00    -0.187 NA
BRANCH  11  12
ATOM     12  N   UNL     1     -17.124 -12.628  14.638  0.00  0.00    -0.203 N 
ATOM     13  C   UNL     1     -15.948 -12.894  13.950  0.00  0.00    +0.263 C 
ATOM     14  O   UNL     1     -14.823 -12.888  14.442  0.00  0.00    -0.268 OA
ATOM     15  H   UNL     1     -17.991 -12.669  14.173  0.00  0.00    +0.000 HD
BRANCH  13  16
ATOM     16  C   UNL     1     -16.104 -13.261  12.513  0.00  0.00    +0.042 A 
ATOM     17  C   UNL     1     -15.319 -14.251  11.908  0.00  0.00    -0.004 A 
ATOM     18  C   UNL     1     -15.479 -14.538  10.545  0.00  0.00    +0.162 A 
ATOM     19  C   UNL     1     -16.448 -13.846   9.788  0.00  0.00    +0.162 A 
ATOM     20  C   UNL     1     -17.257 -12.890  10.412  0.00  0.00    -0.016 A 
ATOM     21  C   UNL     1     -17.083 -12.599  11.766  0.00  0.00    -0.046 A 
BRANCH  19  22
ATOM     22  O   UNL     1     -16.524 -14.177   8.457  0.00  0.00    -0.491 OA
ATOM     23  C   UNL     1     -17.798 -14.521   7.932  0.00  0.00    +0.079 C 
ENDBRANCH  19  22
BRANCH  18  24
ATOM     24  O   UNL     1     -14.737 -15.471   9.860  0.00  0.00    -0.491 OA
ATOM     25  C   UNL     1     -13.723 -15.004   8.983  0.00  0.00    +0.079 C 
ENDBRANCH  18  24
ENDBRANCH  13  16
ENDBRANCH  11  12
ENDBRANCH   9  10
BRANCH   7  26
ATOM     26  C   UNL     1     -18.927 -10.373  20.991  0.00  0.00    +0.048 C 
BRANCH  26  27
ATOM     27  C   UNL     1     -20.265 -10.680  21.619  0.00  0.00    -0.028 A 
ATOM     28  C   UNL     1     -21.293 -11.257  20.860  0.00  0.00    -0.055 A 
ATOM     29  C   UNL     1     -22.565 -11.436  21.409  0.00  0.00    -0.043 A 
ATOM     30  C   UNL     1     -22.812 -11.052  22.725  0.00  0.00    +0.041 A 
ATOM     31  C   UNL     1     -21.788 -10.524  23.509  0.00  0.00    -0.043 A 
ATOM     32  C   UNL     1     -20.517 -10.340  22.958  0.00  0.00    -0.055 A 
ATOM     33 CL   UNL     1     -24.396 -11.209  23.377  0.00  0.00    -0.084 Cl
ENDBRANCH  26  27
ENDBRANCH   7  26
TORSDOF 7
ENDMDL
MODEL 2
REMARK VINA RESULT:    -8.168      2.063      2.786
REMARK INTER + INTRA:         -12.103
REMARK INTER:                 -11.108
REMARK INTRA:                  -0.994
REMARK UNBOUND:                -0.592
REMARK  Name = 23c.sdf
REMARK  9 active torsions:
REMARK  status: ('A' for Active; 'I' for Inactive)
REMARK    1  A    between atoms: N_7  and  C_12
REMARK    2  A    between atoms: C_9  and  C_10
REMARK    3  A    between atoms: N_11  and  N_19
REMARK    4  A    between atoms: C_12  and  C_13
REMARK    5  A    between atoms: C_20  and  C_22
REMARK    6  A    between atoms: C_24  and  O_30
REMARK    7  A    between atoms: C_25  and  O_29
REMARK    8  A    between atoms: O_29  and  C_32
REMARK    9  A    between atoms: O_30  and  C_31
REMARK                            x       y       z     vdW  Elec       q    Type
REMARK                         _______ _______ _______ _____ _____    ______ ____
ROOT
ATOM      1  C   UNL     1     -16.112 -14.463  20.759  0.00  0.00    -0.061 A 
ATOM      2  C   UNL     1     -17.073 -14.069  21.681  0.00  0.00    -0.060 A 
ATOM      3  C   UNL     1     -18.157 -13.275  21.294  0.00  0.00    -0.038 A 
ATOM      4  C   UNL     1     -18.257 -12.890  19.946  0.00  0.00    +0.050 A 
ATOM      5  C   UNL     1     -17.322 -13.312  18.991  0.00  0.00    +0.009 A 
ATOM      6  C   UNL     1     -16.228 -14.100  19.414  0.00  0.00    -0.052 A 
ATOM      7  N   UNL     1     -19.171 -12.088  19.287  0.00  0.00    -0.342 N 
ATOM      8  C   UNL     1     -18.879 -12.056  17.946  0.00  0.00    +0.015 A 
ATOM      9  C   UNL     1     -17.744 -12.810  17.719  0.00  0.00    +0.020 A 
ENDROOT
BRANCH   9  10
ATOM     10  C   UNL     1     -17.117 -13.036  16.434  0.00  0.00    +0.055 C 
ATOM     11  N   UNL     1     -17.833 -13.022  15.358  0.00  0.00    -0.187 NA
BRANCH  11  12
ATOM     12  N   UNL     1     -17.159 -13.251  14.187  0.00  0.00    -0.203 N 
ATOM     13  C   UNL     1     -17.451 -12.481  13.069  0.00  0.00    +0.263 C 
ATOM     14  O   UNL     1     -18.272 -11.567  13.033  0.00  0.00    -0.268 OA
ATOM     15  H   UNL     1     -16.474 -13.956  14.138  0.00  0.00    +0.000 HD
BRANCH  13  16
ATOM     16  C   UNL     1     -16.652 -12.779  11.847  0.00  0.00    +0.042 A 
ATOM     17  C   UNL     1     -16.977 -13.833  10.983  0.00  0.00    -0.004 A 
ATOM     18  C   UNL     1     -16.176 -14.096   9.862  0.00  0.00    +0.162 A 
ATOM     19  C   UNL     1     -15.055 -13.283   9.592  0.00  0.00    +0.162 A 
ATOM     20  C   UNL     1     -14.764 -12.206  10.436  0.00  0.00    -0.016 A 
ATOM     21  C   UNL     1     -15.558 -11.958  11.558  0.00  0.00    -0.046 A 
BRANCH  19  22
ATOM     22  O   UNL     1     -14.315 -13.622   8.486  0.00  0.00    -0.491 OA
ATOM     23  C   UNL     1     -13.232 -12.776   8.128  0.00  0.00    +0.079 C 
ENDBRANCH  19  22
BRANCH  18  24
ATOM     24  O   UNL     1     -16.400 -15.122   8.976  0.00  0.00    -0.491 OA
ATOM     25  C   UNL     1     -17.346 -14.914   7.938  0.00  0.00    +0.079 C 
ENDBRANCH  18  24
ENDBRANCH  13  16
ENDBRANCH  11  12
ENDBRANCH   9  10
BRANCH   7  26
ATOM     26  C   UNL     1     -20.234 -11.298  19.907  0.00  0.00    +0.048 C 
BRANCH  26  27
ATOM     27  C   UNL     1     -19.684 -10.080  20.608  0.00  0.00    -0.028 A 
ATOM     28  C   UNL     1     -19.844  -9.921  21.992  0.00  0.00    -0.055 A 
ATOM     29  C   UNL     1     -19.436  -8.743  22.622  0.00  0.00    -0.043 A 
ATOM     30  C   UNL     1     -18.854  -7.723  21.873  0.00  0.00    +0.041 A 
ATOM     31  C   UNL     1     -18.641  -7.886  20.506  0.00  0.00    -0.043 A 
ATOM     32  C   UNL     1     -19.054  -9.062  19.875  0.00  0.00    -0.055 A 
ATOM     33 CL   UNL     1     -18.416  -6.246  22.639  0.00  0.00    -0.084 Cl
ENDBRANCH  26  27
ENDBRANCH   7  26
TORSDOF 7
ENDMDL
MODEL 3
REMARK VINA RESULT:    -8.126      1.373      1.872
REMARK INTER + INTRA:         -12.044
REMARK INTER:                 -11.510
REMARK INTRA:                  -0.533
REMARK UNBOUND:                -0.592
REMARK  Name = 23c.sdf
REMARK  9 active torsions:
REMARK  status: ('A' for Active; 'I' for Inactive)
REMARK    1  A    between atoms: N_7  and  C_12
REMARK    2  A    between atoms: C_9  and  C_10
REMARK    3  A    between atoms: N_11  and  N_19
REMARK    4  A    between atoms: C_12  and  C_13
REMARK    5  A    between atoms: C_20  and  C_22
REMARK    6  A    between atoms: C_24  and  O_30
REMARK    7  A    between atoms: C_25  and  O_29
REMARK    8  A    between atoms: O_29  and  C_32
REMARK    9  A    between atoms: O_30  and  C_31
REMARK                            x       y       z     vdW  Elec       q    Type
REMARK                         _______ _______ _______ _____ _____    ______ ____
ROOT
ATOM      1  C   UNL     1     -16.268 -14.894  20.735  0.00  0.00    -0.061 A 
ATOM      2  C   UNL     1     -17.129 -14.378  21.696  0.00  0.00    -0.060 A 
ATOM      3  C   UNL     1     -17.970 -13.300  21.403  0.00  0.00    -0.038 A 
ATOM      4  C   UNL     1     -17.931 -12.754  20.108  0.00  0.00    +0.050 A 
ATOM      5  C   UNL     1     -17.102 -13.287  19.111  0.00  0.00    +0.009 A 
ATOM      6  C   UNL     1     -16.251 -14.365  19.442  0.00  0.00    -0.052 A 
ATOM      7  N   UNL     1     -18.598 -11.681  19.546  0.00  0.00    -0.342 N 
ATOM      8  C   UNL     1     -18.267 -11.573  18.218  0.00  0.00    +0.015 A 
ATOM      9  C   UNL     1     -17.348 -12.556  17.906  0.00  0.00    +0.020 A 
ENDROOT
BRANCH   9  10
ATOM     10  C   UNL     1     -16.759 -12.787  16.604  0.00  0.00    +0.055 C 
ATOM     11  N   UNL     1     -17.481 -12.656  15.539  0.00  0.00    -0.187 NA
BRANCH  11  12
ATOM     12  N   UNL     1     -16.845 -12.899  14.351  0.00  0.00    -0.203 N 
ATOM     13  C   UNL     1     -17.449 -12.516  13.161  0.00  0.00    +0.263 C 
ATOM     14  O   UNL     1     -18.531 -11.941  13.070  0.00  0.00    -0.268 OA
ATOM     15  H   UNL     1     -15.965 -13.343  14.340  0.00  0.00    +0.000 HD
BRANCH  13  16
ATOM     16  C   UNL     1     -16.675 -12.794  11.918  0.00  0.00    +0.042 A 
ATOM     17  C   UNL     1     -17.018 -13.832  11.043  0.00  0.00    -0.004 A 
ATOM     18  C   UNL     1     -16.240 -14.076   9.902  0.00  0.00    +0.162 A 
ATOM     19  C   UNL     1     -15.123 -13.259   9.624  0.00  0.00    +0.162 A 
ATOM     20  C   UNL     1     -14.815 -12.197  10.480  0.00  0.00    -0.016 A 
ATOM     21  C   UNL     1     -15.586 -11.968  11.622  0.00  0.00    -0.046 A 
BRANCH  19  22
ATOM     22  O   UNL     1     -14.406 -13.580   8.498  0.00  0.00    -0.491 OA
ATOM     23  C   UNL     1     -13.527 -14.694   8.567  0.00  0.00    +0.079 C 
ENDBRANCH  19  22
BRANCH  18  24
ATOM     24  O   UNL     1     -16.482 -15.087   9.004  0.00  0.00    -0.491 OA
ATOM     25  C   UNL     1     -17.328 -14.809   7.897  0.00  0.00    +0.079 C 
ENDBRANCH  18  24
ENDBRANCH  13  16
ENDBRANCH  11  12
ENDBRANCH   9  10
BRANCH   7  26
ATOM     26  C   UNL     1     -19.449 -10.725  20.252  0.00  0.00    +0.048 C 
BRANCH  26  27
ATOM     27  C   UNL     1     -20.816 -11.299  20.533  0.00  0.00    -0.028 A 
ATOM     28  C   UNL     1     -21.433 -12.157  19.611  0.00  0.00    -0.055 A 
ATOM     29  C   UNL     1     -22.742 -12.598  19.818  0.00  0.00    -0.043 A 
ATOM     30  C   UNL     1     -23.437 -12.195  20.955  0.00  0.00    +0.041 A 
ATOM     31  C   UNL     1     -22.821 -11.385  21.907  0.00  0.00    -0.043 A 
ATOM     32  C   UNL     1     -21.513 -10.940  21.697  0.00  0.00    -0.055 A 
ATOM     33 CL   UNL     1     -25.072 -12.682  21.173  0.00  0.00    -0.084 Cl
ENDBRANCH  26  27
ENDBRANCH   7  26
TORSDOF 7
ENDMDL
