MODEL 1
REMARK VINA RESULT:    -9.421      0.000      0.000
REMARK INTER + INTRA:         -13.893
REMARK INTER:                 -12.726
REMARK INTRA:                  -1.168
REMARK UNBOUND:                -1.168
REMARK  Name = 26c.sdf
REMARK  7 active torsions:
REMARK  status: ('A' for Active; 'I' for Inactive)
REMARK    1  A    between atoms: N_7  and  C_10
REMARK    2  A    between atoms: C_9  and  C_18
REMARK    3  A    between atoms: C_10  and  C_11
REMARK    4  A    between atoms: N_19  and  N_20
REMARK    5  A    between atoms: C_21  and  C_23
REMARK    6  A    between atoms: C_26  and  O_29
REMARK    7  A    between atoms: C_28  and  O_30
REMARK                            x       y       z     vdW  Elec       q    Type
REMARK                         _______ _______ _______ _____ _____    ______ ____
ROOT
ATOM      1  C   UNL     1     -16.205 -14.741  20.775  0.00  0.00    -0.061 A 
ATOM      2  C   UNL     1     -17.195 -14.354  21.670  0.00  0.00    -0.060 A 
ATOM      3  C   UNL     1     -18.234 -13.506  21.273  0.00  0.00    -0.038 A 
ATOM      4  C   UNL     1     -18.257 -13.050  19.943  0.00  0.00    +0.050 A 
ATOM      5  C   UNL     1     -17.300 -13.475  19.009  0.00  0.00    +0.009 A 
ATOM      6  C   UNL     1     -16.255 -14.322  19.443  0.00  0.00    -0.052 A 
ATOM      7  N   UNL     1     -19.096 -12.168  19.286  0.00  0.00    -0.342 N 
ATOM      8  C   UNL     1     -18.754 -12.106  17.960  0.00  0.00    +0.015 A 
ATOM      9  C   UNL     1     -17.650 -12.907  17.746  0.00  0.00    +0.020 A 
ENDROOT
BRANCH   9  10
ATOM     10  C   UNL     1     -16.994 -13.112  16.471  0.00  0.00    +0.055 C 
ATOM     11  N   UNL     1     -17.708 -13.142  15.391  0.00  0.00    -0.187 NA
BRANCH  11  12
ATOM     12  N   UNL     1     -16.998 -13.351  14.242  0.00  0.00    -0.203 N 
ATOM     13  C   UNL     1     -17.419 -12.821  13.033  0.00  0.00    +0.267 C 
ATOM     14  O   UNL     1     -18.432 -12.143  12.880  0.00  0.00    -0.268 OA
ATOM     15  H   UNL     1     -16.172 -13.886  14.273  0.00  0.00    +0.000 HD
BRANCH  13  16
ATOM     16  C   UNL     1     -16.544 -13.124  11.850  0.00  0.00    +0.080 A 
ATOM     17  C   UNL     1     -16.078 -12.037  11.091  0.00  0.00    -0.043 A 
ATOM     18  C   UNL     1     -15.262 -12.237   9.972  0.00  0.00    -0.019 A 
ATOM     19  C   UNL     1     -14.910 -13.531   9.610  0.00  0.00    +0.120 A 
ATOM     20  C   UNL     1     -15.349 -14.623  10.348  0.00  0.00    +0.022 A 
ATOM     21  C   UNL     1     -16.166 -14.422  11.466  0.00  0.00    +0.132 A 
BRANCH  19  22
ATOM     22  O   UNL     1     -14.126 -13.782   8.523  0.00  0.00    -0.507 OA
ATOM     23  H   UNL     1     -14.470 -13.662   7.660  0.00  0.00    +0.000 HD
ENDBRANCH  19  22
BRANCH  21  24
ATOM     24  O   UNL     1     -16.589 -15.519  12.171  0.00  0.00    -0.506 OA
ATOM     25  H   UNL     1     -16.820 -15.434  13.076  0.00  0.00    +0.000 HD
ENDBRANCH  21  24
ENDBRANCH  13  16
ENDBRANCH  11  12
ENDBRANCH   9  10
BRANCH   7  26
ATOM     26  C   UNL     1     -20.112 -11.305  19.891  0.00  0.00    +0.048 C 
BRANCH  26  27
ATOM     27  C   UNL     1     -19.513 -10.035  20.443  0.00  0.00    -0.028 A 
ATOM     28  C   UNL     1     -19.021  -9.994  21.755  0.00  0.00    -0.055 A 
ATOM     29  C   UNL     1     -18.604  -8.788  22.319  0.00  0.00    -0.043 A 
ATOM     30  C   UNL     1     -18.656  -7.618  21.566  0.00  0.00    +0.041 A 
ATOM     31  C   UNL     1     -19.069  -7.652  20.237  0.00  0.00    -0.043 A 
ATOM     32  C   UNL     1     -19.494  -8.859  19.675  0.00  0.00    -0.055 A 
ATOM     33 CL   UNL     1     -18.241  -6.115  22.296  0.00  0.00    -0.084 Cl
ENDBRANCH  26  27
ENDBRANCH   7  26
TORSDOF 7
ENDMDL
MODEL 2
REMARK VINA RESULT:    -9.292      2.114      2.802
REMARK INTER + INTRA:         -13.719
REMARK INTER:                 -12.614
REMARK INTRA:                  -1.105
REMARK UNBOUND:                -1.168
REMARK  Name = 26c.sdf
REMARK  7 active torsions:
REMARK  status: ('A' for Active; 'I' for Inactive)
REMARK    1  A    between atoms: N_7  and  C_10
REMARK    2  A    between atoms: C_9  and  C_18
REMARK    3  A    between atoms: C_10  and  C_11
REMARK    4  A    between atoms: N_19  and  N_20
REMARK    5  A    between atoms: C_21  and  C_23
REMARK    6  A    between atoms: C_26  and  O_29
REMARK    7  A    between atoms: C_28  and  O_30
REMARK                            x       y       z     vdW  Elec       q    Type
REMARK                         _______ _______ _______ _____ _____    ______ ____
ROOT
ATOM      1  C   UNL     1     -16.265 -14.840  20.755  0.00  0.00    -0.061 A 
ATOM      2  C   UNL     1     -17.171 -14.332  21.679  0.00  0.00    -0.060 A 
ATOM      3  C   UNL     1     -18.045 -13.295  21.335  0.00  0.00    -0.038 A 
ATOM      4  C   UNL     1     -17.989 -12.774  20.031  0.00  0.00    +0.050 A 
ATOM      5  C   UNL     1     -17.123 -13.312  19.067  0.00  0.00    +0.009 A 
ATOM      6  C   UNL     1     -16.243 -14.350  19.446  0.00  0.00    -0.052 A 
ATOM      7  N   UNL     1     -18.660 -11.726  19.427  0.00  0.00    -0.342 N 
ATOM      8  C   UNL     1     -18.314 -11.656  18.103  0.00  0.00    +0.015 A 
ATOM      9  C   UNL     1     -17.368 -12.627  17.837  0.00  0.00    +0.020 A 
ENDROOT
BRANCH   9  10
ATOM     10  C   UNL     1     -16.760 -12.878  16.547  0.00  0.00    +0.055 C 
ATOM     11  N   UNL     1     -17.515 -12.959  15.498  0.00  0.00    -0.187 NA
BRANCH  11  12
ATOM     12  N   UNL     1     -16.847 -13.207  14.331  0.00  0.00    -0.203 N 
ATOM     13  C   UNL     1     -17.327 -12.742  13.118  0.00  0.00    +0.267 C 
ATOM     14  O   UNL     1     -18.358 -12.090  12.976  0.00  0.00    -0.268 OA
ATOM     15  H   UNL     1     -16.010 -13.726  14.353  0.00  0.00    +0.000 HD
BRANCH  13  16
ATOM     16  C   UNL     1     -16.495 -13.084  11.915  0.00  0.00    +0.080 A 
ATOM     17  C   UNL     1     -15.990 -12.018  11.149  0.00  0.00    -0.043 A 
ATOM     18  C   UNL     1     -15.211 -12.255  10.012  0.00  0.00    -0.019 A 
ATOM     19  C   UNL     1     -14.932 -13.563   9.639  0.00  0.00    +0.120 A 
ATOM     20  C   UNL     1     -15.409 -14.635  10.383  0.00  0.00    +0.022 A 
ATOM     21  C   UNL     1     -16.191 -14.398  11.519  0.00  0.00    +0.132 A 
BRANCH  19  22
ATOM     22  O   UNL     1     -14.186 -13.850   8.534  0.00  0.00    -0.507 OA
ATOM     23  H   UNL     1     -14.242 -13.302   7.776  0.00  0.00    +0.000 HD
ENDBRANCH  19  22
BRANCH  21  24
ATOM     24  O   UNL     1     -16.654 -15.475  12.230  0.00  0.00    -0.506 OA
ATOM     25  H   UNL     1     -16.095 -16.211  12.383  0.00  0.00    +0.000 HD
ENDBRANCH  21  24
ENDBRANCH  13  16
ENDBRANCH  11  12
ENDBRANCH   9  10
BRANCH   7  26
ATOM     26  C   UNL     1     -19.507 -10.730  20.085  0.00  0.00    +0.048 C 
BRANCH  26  27
ATOM     27  C   UNL     1     -20.850 -11.302  20.470  0.00  0.00    -0.028 A 
ATOM     28  C   UNL     1     -21.553 -12.125  19.578  0.00  0.00    -0.055 A 
ATOM     29  C   UNL     1     -22.855 -12.533  19.866  0.00  0.00    -0.043 A 
ATOM     30  C   UNL     1     -23.456 -12.138  21.059  0.00  0.00    +0.041 A 
ATOM     31  C   UNL     1     -22.746 -11.386  21.991  0.00  0.00    -0.043 A 
ATOM     32  C   UNL     1     -21.445 -10.970  21.698  0.00  0.00    -0.055 A 
ATOM     33 CL   UNL     1     -25.098 -12.555  21.365  0.00  0.00    -0.084 Cl
ENDBRANCH  26  27
ENDBRANCH   7  26
TORSDOF 7
ENDMDL
MODEL 3
REMARK VINA RESULT:    -8.243      2.637      4.319
REMARK INTER + INTRA:         -12.302
REMARK INTER:                 -11.915
REMARK INTRA:                  -0.387
REMARK UNBOUND:                -1.168
REMARK  Name = 26c.sdf
REMARK  7 active torsions:
REMARK  status: ('A' for Active; 'I' for Inactive)
REMARK    1  A    between atoms: N_7  and  C_10
REMARK    2  A    between atoms: C_9  and  C_18
REMARK    3  A    between atoms: C_10  and  C_11
REMARK    4  A    between atoms: N_19  and  N_20
REMARK    5  A    between atoms: C_21  and  C_23
REMARK    6  A    between atoms: C_26  and  O_29
REMARK    7  A    between atoms: C_28  and  O_30
REMARK                            x       y       z     vdW  Elec       q    Type
REMARK                         _______ _______ _______ _____ _____    ______ ____
ROOT
ATOM      1  C   UNL     1     -23.221 -11.390  16.224  0.00  0.00    -0.061 A 
ATOM      2  C   UNL     1     -23.243 -10.901  17.525  0.00  0.00    -0.060 A 
ATOM      3  C   UNL     1     -22.058 -10.730  18.250  0.00  0.00    -0.038 A 
ATOM      4  C   UNL     1     -20.839 -11.065  17.634  0.00  0.00    +0.050 A 
ATOM      5  C   UNL     1     -20.792 -11.504  16.303  0.00  0.00    +0.009 A 
ATOM      6  C   UNL     1     -22.005 -11.679  15.600  0.00  0.00    -0.052 A 
ATOM      7  N   UNL     1     -19.540 -11.071  18.106  0.00  0.00    -0.342 N 
ATOM      8  C   UNL     1     -18.681 -11.404  17.091  0.00  0.00    +0.015 A 
ATOM      9  C   UNL     1     -19.416 -11.674  15.954  0.00  0.00    +0.020 A 
ENDROOT
BRANCH   9  10
ATOM     10  C   UNL     1     -18.869 -12.053  14.668  0.00  0.00    +0.055 C 
ATOM     11  N   UNL     1     -17.829 -12.823  14.627  0.00  0.00    -0.187 NA
BRANCH  11  12
ATOM     12  N   UNL     1     -17.384 -13.116  13.368  0.00  0.00    -0.203 N 
ATOM     13  C   UNL     1     -16.031 -13.227  13.093  0.00  0.00    +0.267 C 
ATOM     14  O   UNL     1     -15.134 -13.076  13.919  0.00  0.00    -0.268 OA
ATOM     15  H   UNL     1     -18.037 -13.250  12.643  0.00  0.00    +0.000 HD
BRANCH  13  16
ATOM     16  C   UNL     1     -15.680 -13.553  11.670  0.00  0.00    +0.080 A 
ATOM     17  C   UNL     1     -15.148 -12.520  10.878  0.00  0.00    -0.043 A 
ATOM     18  C   UNL     1     -14.801 -12.743   9.541  0.00  0.00    -0.019 A 
ATOM     19  C   UNL     1     -14.985 -14.007   8.993  0.00  0.00    +0.120 A 
ATOM     20  C   UNL     1     -15.500 -15.048   9.755  0.00  0.00    +0.022 A 
ATOM     21  C   UNL     1     -15.849 -14.823  11.091  0.00  0.00    +0.132 A 
BRANCH  19  22
ATOM     22  O   UNL     1     -14.673 -14.275   7.693  0.00  0.00    -0.507 OA
ATOM     23  H   UNL     1     -14.704 -13.592   7.053  0.00  0.00    +0.000 HD
ENDBRANCH  19  22
BRANCH  21  24
ATOM     24  O   UNL     1     -16.361 -15.867  11.818  0.00  0.00    -0.506 OA
ATOM     25  H   UNL     1     -15.784 -16.494  12.208  0.00  0.00    +0.000 HD
ENDBRANCH  21  24
ENDBRANCH  13  16
ENDBRANCH  11  12
ENDBRANCH   9  10
BRANCH   7  26
ATOM     26  C   UNL     1     -19.108 -10.896  19.493  0.00  0.00    +0.048 C 
BRANCH  26  27
ATOM     27  C   UNL     1     -18.501 -12.158  20.055  0.00  0.00    -0.028 A 
ATOM     28  C   UNL     1     -18.728 -12.521  21.391  0.00  0.00    -0.055 A 
ATOM     29  C   UNL     1     -18.052 -13.603  21.956  0.00  0.00    -0.043 A 
ATOM     30  C   UNL     1     -17.160 -14.342  21.183  0.00  0.00    +0.041 A 
ATOM     31  C   UNL     1     -16.981 -14.044  19.836  0.00  0.00    -0.043 A 
ATOM     32  C   UNL     1     -17.651 -12.956  19.271  0.00  0.00    -0.055 A 
ATOM     33 CL   UNL     1     -16.250 -15.609  21.910  0.00  0.00    -0.084 Cl
ENDBRANCH  26  27
ENDBRANCH   7  26
TORSDOF 7
ENDMDL
