MODEL 1
REMARK VINA RESULT:    -9.086      0.000      0.000
REMARK INTER + INTRA:         -12.821
REMARK INTER:                 -12.007
REMARK INTRA:                  -0.813
REMARK UNBOUND:                -0.813
REMARK  Name = 27c.sdf
REMARK  6 active torsions:
REMARK  status: ('A' for Active; 'I' for Inactive)
REMARK    1  A    between atoms: N_7  and  C_10
REMARK    2  A    between atoms: C_9  and  C_18
REMARK    3  A    between atoms: C_10  and  C_11
REMARK    4  A    between atoms: N_19  and  N_20
REMARK    5  A    between atoms: C_21  and  C_23
REMARK    6  A    between atoms: C_26  and  N_29
REMARK                            x       y       z     vdW  Elec       q    Type
REMARK                         _______ _______ _______ _____ _____    ______ ____
ROOT
ATOM      1  C   UNL     1     -16.273 -14.841  20.468  0.00  0.00    -0.061 A 
ATOM      2  C   UNL     1     -16.802 -14.240  21.603  0.00  0.00    -0.060 A 
ATOM      3  C   UNL     1     -17.615 -13.106  21.505  0.00  0.00    -0.038 A 
ATOM      4  C   UNL     1     -17.889 -12.586  20.227  0.00  0.00    +0.050 A 
ATOM      5  C   UNL     1     -17.412 -13.210  19.068  0.00  0.00    +0.009 A 
ATOM      6  C   UNL     1     -16.582 -14.345  19.198  0.00  0.00    -0.052 A 
ATOM      7  N   UNL     1     -18.592 -11.466  19.822  0.00  0.00    -0.342 N 
ATOM      8  C   UNL     1     -18.639 -11.421  18.450  0.00  0.00    +0.015 A 
ATOM      9  C   UNL     1     -17.925 -12.493  17.945  0.00  0.00    +0.020 A 
ENDROOT
BRANCH   9  10
ATOM     10  C   UNL     1     -17.754 -12.815  16.544  0.00  0.00    +0.055 C 
ATOM     11  N   UNL     1     -16.660 -12.492  15.936  0.00  0.00    -0.187 NA
BRANCH  11  12
ATOM     12  N   UNL     1     -16.585 -12.826  14.608  0.00  0.00    -0.203 N 
ATOM     13  C   UNL     1     -15.414 -12.576  13.905  0.00  0.00    +0.263 C 
ATOM     14  O   UNL     1     -14.398 -12.077  14.379  0.00  0.00    -0.268 OA
ATOM     15  H   UNL     1     -17.356 -13.240  14.156  0.00  0.00    +0.000 HD
BRANCH  13  16
ATOM     16  C   UNL     1     -15.410 -13.000  12.473  0.00  0.00    +0.038 A 
ATOM     17  C   UNL     1     -15.241 -12.097  11.419  0.00  0.00    -0.048 A 
ATOM     18  C   UNL     1     -15.254 -12.556  10.095  0.00  0.00    -0.040 A 
ATOM     19  C   UNL     1     -15.468 -13.906   9.804  0.00  0.00    +0.025 A 
ATOM     20  C   UNL     1     -15.545 -14.813  10.862  0.00  0.00    -0.040 A 
ATOM     21  C   UNL     1     -15.535 -14.365  12.188  0.00  0.00    -0.048 A 
BRANCH  19  22
ATOM     22  N   UNL     1     -15.365 -14.369   8.488  0.00  0.00    -0.358 N 
ATOM     23  H   UNL     1     -16.051 -14.975   8.123  0.00  0.00    +0.000 HD
ATOM     24  H   UNL     1     -14.608 -14.088   7.925  0.00  0.00    +0.000 HD
ENDBRANCH  19  22
ENDBRANCH  13  16
ENDBRANCH  11  12
ENDBRANCH   9  10
BRANCH   7  25
ATOM     25  C   UNL     1     -19.111 -10.404  20.685  0.00  0.00    +0.048 C 
BRANCH  25  26
ATOM     26  C   UNL     1     -20.436 -10.782  21.301  0.00  0.00    -0.028 A 
ATOM     27  C   UNL     1     -21.387 -11.499  20.560  0.00  0.00    -0.055 A 
ATOM     28  C   UNL     1     -22.667 -11.721  21.073  0.00  0.00    -0.043 A 
ATOM     29  C   UNL     1     -22.995 -11.245  22.340  0.00  0.00    +0.041 A 
ATOM     30  C   UNL     1     -22.041 -10.598  23.119  0.00  0.00    -0.043 A 
ATOM     31  C   UNL     1     -20.763 -10.369  22.602  0.00  0.00    -0.055 A 
ATOM     32 CL   UNL     1     -24.601 -11.431  22.930  0.00  0.00    -0.084 Cl
ENDBRANCH  25  26
ENDBRANCH   7  25
TORSDOF 6
ENDMDL
MODEL 2
REMARK VINA RESULT:    -8.880      2.178      2.832
REMARK INTER + INTRA:         -12.549
REMARK INTER:                 -11.640
REMARK INTRA:                  -0.909
REMARK UNBOUND:                -0.813
REMARK  Name = 27c.sdf
REMARK  6 active torsions:
REMARK  status: ('A' for Active; 'I' for Inactive)
REMARK    1  A    between atoms: N_7  and  C_10
REMARK    2  A    between atoms: C_9  and  C_18
REMARK    3  A    between atoms: C_10  and  C_11
REMARK    4  A    between atoms: N_19  and  N_20
REMARK    5  A    between atoms: C_21  and  C_23
REMARK    6  A    between atoms: C_26  and  N_29
REMARK                            x       y       z     vdW  Elec       q    Type
REMARK                         _______ _______ _______ _____ _____    ______ ____
ROOT
ATOM      1  C   UNL     1     -16.255 -14.720  20.870  0.00  0.00    -0.061 A 
ATOM      2  C   UNL     1     -17.207 -14.287  21.784  0.00  0.00    -0.060 A 
ATOM      3  C   UNL     1     -18.244 -13.433  21.395  0.00  0.00    -0.038 A 
ATOM      4  C   UNL     1     -18.304 -13.021  20.052  0.00  0.00    +0.050 A 
ATOM      5  C   UNL     1     -17.388 -13.490  19.103  0.00  0.00    +0.009 A 
ATOM      6  C   UNL     1     -16.343 -14.340  19.527  0.00  0.00    -0.052 A 
ATOM      7  N   UNL     1     -19.154 -12.149  19.395  0.00  0.00    -0.342 N 
ATOM      8  C   UNL     1     -18.850 -12.129  18.055  0.00  0.00    +0.015 A 
ATOM      9  C   UNL     1     -17.763 -12.956  17.833  0.00  0.00    +0.020 A 
ENDROOT
BRANCH   9  10
ATOM     10  C   UNL     1     -17.148 -13.225  16.550  0.00  0.00    +0.055 C 
ATOM     11  N   UNL     1     -16.825 -12.246  15.770  0.00  0.00    -0.187 NA
BRANCH  11  12
ATOM     12  N   UNL     1     -16.257 -12.591  14.571  0.00  0.00    -0.203 N 
ATOM     13  C   UNL     1     -17.061 -12.716  13.445  0.00  0.00    +0.263 C 
ATOM     14  O   UNL     1     -18.274 -12.529  13.418  0.00  0.00    -0.268 OA
ATOM     15  H   UNL     1     -15.288 -12.749  14.508  0.00  0.00    +0.000 HD
BRANCH  13  16
ATOM     16  C   UNL     1     -16.356 -13.064  12.176  0.00  0.00    +0.038 A 
ATOM     17  C   UNL     1     -16.223 -14.380  11.723  0.00  0.00    -0.048 A 
ATOM     18  C   UNL     1     -15.543 -14.643  10.526  0.00  0.00    -0.040 A 
ATOM     19  C   UNL     1     -14.962 -13.609   9.787  0.00  0.00    +0.025 A 
ATOM     20  C   UNL     1     -15.177 -12.293  10.197  0.00  0.00    -0.040 A 
ATOM     21  C   UNL     1     -15.853 -12.019  11.392  0.00  0.00    -0.048 A 
BRANCH  19  22
ATOM     22  N   UNL     1     -14.387 -13.871   8.539  0.00  0.00    -0.358 N 
ATOM     23  H   UNL     1     -14.892 -14.373   7.859  0.00  0.00    +0.000 HD
ATOM     24  H   UNL     1     -13.476 -13.553   8.340  0.00  0.00    +0.000 HD
ENDBRANCH  19  22
ENDBRANCH  13  16
ENDBRANCH  11  12
ENDBRANCH   9  10
BRANCH   7  25
ATOM     25  C   UNL     1     -20.151 -11.274  20.012  0.00  0.00    +0.048 C 
BRANCH  25  26
ATOM     26  C   UNL     1     -19.531 -10.002  20.536  0.00  0.00    -0.028 A 
ATOM     27  C   UNL     1     -19.064  -9.929  21.857  0.00  0.00    -0.055 A 
ATOM     28  C   UNL     1     -18.628  -8.714  22.389  0.00  0.00    -0.043 A 
ATOM     29  C   UNL     1     -18.636  -7.569  21.596  0.00  0.00    +0.041 A 
ATOM     30  C   UNL     1     -19.024  -7.639  20.262  0.00  0.00    -0.043 A 
ATOM     31  C   UNL     1     -19.469  -8.853  19.732  0.00  0.00    -0.055 A 
ATOM     32 CL   UNL     1     -18.193  -6.054  22.282  0.00  0.00    -0.084 Cl
ENDBRANCH  25  26
ENDBRANCH   7  25
TORSDOF 6
ENDMDL
MODEL 3
REMARK VINA RESULT:    -7.941      2.665      4.352
REMARK INTER + INTRA:         -11.307
REMARK INTER:                 -11.223
REMARK INTRA:                  -0.084
REMARK UNBOUND:                -0.813
REMARK  Name = 27c.sdf
REMARK  6 active torsions:
REMARK  status: ('A' for Active; 'I' for Inactive)
REMARK    1  A    between atoms: N_7  and  C_10
REMARK    2  A    between atoms: C_9  and  C_18
REMARK    3  A    between atoms: C_10  and  C_11
REMARK    4  A    between atoms: N_19  and  N_20
REMARK    5  A    between atoms: C_21  and  C_23
REMARK    6  A    between atoms: C_26  and  N_29
REMARK                            x       y       z     vdW  Elec       q    Type
REMARK                         _______ _______ _______ _____ _____    ______ ____
ROOT
ATOM      1  C   UNL     1     -20.063  -7.400  16.261  0.00  0.00    -0.061 A 
ATOM      2  C   UNL     1     -20.330  -7.362  17.623  0.00  0.00    -0.060 A 
ATOM      3  C   UNL     1     -20.243  -8.517  18.407  0.00  0.00    -0.038 A 
ATOM      4  C   UNL     1     -19.876  -9.723  17.785  0.00  0.00    +0.050 A 
ATOM      5  C   UNL     1     -19.548  -9.772  16.424  0.00  0.00    +0.009 A 
ATOM      6  C   UNL     1     -19.659  -8.593  15.655  0.00  0.00    -0.052 A 
ATOM      7  N   UNL     1     -19.769 -11.013  18.272  0.00  0.00    -0.342 N 
ATOM      8  C   UNL     1     -19.303 -11.844  17.282  0.00  0.00    +0.015 A 
ATOM      9  C   UNL     1     -19.146 -11.108  16.121  0.00  0.00    +0.020 A 
ENDROOT
BRANCH   9  10
ATOM     10  C   UNL     1     -18.653 -11.611  14.856  0.00  0.00    +0.055 C 
ATOM     11  N   UNL     1     -17.795 -12.577  14.835  0.00  0.00    -0.187 NA
BRANCH  11  12
ATOM     12  N   UNL     1     -17.375 -12.985  13.595  0.00  0.00    -0.203 N 
ATOM     13  C   UNL     1     -16.081 -12.694  13.182  0.00  0.00    +0.263 C 
ATOM     14  O   UNL     1     -15.244 -12.094  13.849  0.00  0.00    -0.268 OA
ATOM     15  H   UNL     1     -17.985 -13.480  13.002  0.00  0.00    +0.000 HD
BRANCH  13  16
ATOM     16  C   UNL     1     -15.698 -13.202  11.831  0.00  0.00    +0.038 A 
ATOM     17  C   UNL     1     -15.477 -12.355  10.740  0.00  0.00    -0.048 A 
ATOM     18  C   UNL     1     -15.126 -12.894   9.495  0.00  0.00    -0.040 A 
ATOM     19  C   UNL     1     -15.025 -14.277   9.312  0.00  0.00    +0.025 A 
ATOM     20  C   UNL     1     -15.159 -15.109  10.425  0.00  0.00    -0.040 A 
ATOM     21  C   UNL     1     -15.511 -14.580  11.673  0.00  0.00    -0.048 A 
BRANCH  19  22
ATOM     22  N   UNL     1     -14.565 -14.796   8.098  0.00  0.00    -0.358 N 
ATOM     23  H   UNL     1     -14.582 -15.767   7.940  0.00  0.00    +0.000 HD
ATOM     24  H   UNL     1     -14.225 -14.190   7.400  0.00  0.00    +0.000 HD
ENDBRANCH  19  22
ENDBRANCH  13  16
ENDBRANCH  11  12
ENDBRANCH   9  10
BRANCH   7  25
ATOM     25  C   UNL     1     -20.192 -11.485  19.591  0.00  0.00    +0.048 C 
BRANCH  25  26
ATOM     26  C   UNL     1     -19.160 -12.387  20.221  0.00  0.00    -0.028 A 
ATOM     27  C   UNL     1     -17.919 -12.593  19.598  0.00  0.00    -0.055 A 
ATOM     28  C   UNL     1     -17.023 -13.539  20.098  0.00  0.00    -0.043 A 
ATOM     29  C   UNL     1     -17.352 -14.270  21.236  0.00  0.00    +0.041 A 
ATOM     30  C   UNL     1     -18.545 -14.026  21.909  0.00  0.00    -0.043 A 
ATOM     31  C   UNL     1     -19.446 -13.085  21.404  0.00  0.00    -0.055 A 
ATOM     32 CL   UNL     1     -16.291 -15.506  21.793  0.00  0.00    -0.084 Cl
ENDBRANCH  25  26
ENDBRANCH   7  25
TORSDOF 6
ENDMDL
