MODEL 1
REMARK VINA RESULT:    -5.858      0.000      0.000
REMARK INTER + INTRA:          -6.353
REMARK INTER:                  -6.372
REMARK INTRA:                   0.019
REMARK UNBOUND:                 0.019
REMARK  Name = 4.sdf
REMARK  2 active torsions:
REMARK  status: ('A' for Active; 'I' for Inactive)
REMARK    1  A    between atoms: C_9  and  C_10
REMARK    2  A    between atoms: C_10  and  O_11
REMARK                            x       y       z     vdW  Elec       q    Type
REMARK                         _______ _______ _______ _____ _____    ______ ____
ROOT
ATOM      1  C   UNL     1     -19.940 -12.655  22.051  0.00  0.00    -0.061 A 
ATOM      2  C   UNL     1     -20.113 -11.675  21.077  0.00  0.00    -0.060 A 
ATOM      3  C   UNL     1     -19.274 -11.616  19.962  0.00  0.00    -0.038 A 
ATOM      4  C   UNL     1     -18.253 -12.569  19.862  0.00  0.00    +0.047 A 
ATOM      5  C   UNL     1     -18.043 -13.558  20.826  0.00  0.00    +0.005 A 
ATOM      6  C   UNL     1     -18.912 -13.601  21.937  0.00  0.00    -0.052 A 
ATOM      7  N   UNL     1     -17.298 -12.740  18.888  0.00  0.00    -0.360 N 
ATOM      8  C   UNL     1     -16.484 -13.789  19.208  0.00  0.00    +0.008 A 
ATOM      9  C   UNL     1     -16.904 -14.326  20.411  0.00  0.00    +0.003 A 
ATOM     10  H   UNL     1     -17.214 -12.187  18.078  0.00  0.00    +0.000 HD
ENDROOT
BRANCH   9  11
ATOM     11  C   UNL     1     -16.261 -15.462  21.132  0.00  0.00    +0.071 C 
BRANCH  11  12
ATOM     12  O   UNL     1     -16.029 -15.157  22.504  0.00  0.00    -0.390 OA
ATOM     13  H   UNL     1     -15.827 -14.213  22.595  0.00  0.00    +0.000 HD
ENDBRANCH  11  12
ENDBRANCH   9  11
TORSDOF 2
ENDMDL
MODEL 2
REMARK VINA RESULT:    -5.794      1.495      2.944
REMARK INTER + INTRA:          -6.283
REMARK INTER:                  -6.258
REMARK INTRA:                  -0.025
REMARK UNBOUND:                 0.019
REMARK  Name = 4.sdf
REMARK  2 active torsions:
REMARK  status: ('A' for Active; 'I' for Inactive)
REMARK    1  A    between atoms: C_9  and  C_10
REMARK    2  A    between atoms: C_10  and  O_11
REMARK                            x       y       z     vdW  Elec       q    Type
REMARK                         _______ _______ _______ _____ _____    ______ ____
ROOT
ATOM      1  C   UNL     1     -16.600 -12.601  17.195  0.00  0.00    -0.061 A 
ATOM      2  C   UNL     1     -17.529 -11.575  17.338  0.00  0.00    -0.060 A 
ATOM      3  C   UNL     1     -18.221 -11.397  18.538  0.00  0.00    -0.038 A 
ATOM      4  C   UNL     1     -17.951 -12.286  19.586  0.00  0.00    +0.047 A 
ATOM      5  C   UNL     1     -17.033 -13.334  19.472  0.00  0.00    +0.005 A 
ATOM      6  C   UNL     1     -16.341 -13.485  18.251  0.00  0.00    -0.052 A 
ATOM      7  N   UNL     1     -18.480 -12.343  20.853  0.00  0.00    -0.360 N 
ATOM      8  C   UNL     1     -17.942 -13.395  21.539  0.00  0.00    +0.008 A 
ATOM      9  C   UNL     1     -17.041 -14.047  20.718  0.00  0.00    +0.003 A 
ATOM     10  H   UNL     1     -19.148 -11.717  21.213  0.00  0.00    +0.000 HD
ENDROOT
BRANCH   9  11
ATOM     11  C   UNL     1     -16.265 -15.271  21.070  0.00  0.00    +0.071 C 
BRANCH  11  12
ATOM     12  O   UNL     1     -16.022 -15.361  22.470  0.00  0.00    -0.390 OA
ATOM     13  H   UNL     1     -16.011 -16.293  22.738  0.00  0.00    +0.000 HD
ENDBRANCH  11  12
ENDBRANCH   9  11
TORSDOF 2
ENDMDL
MODEL 3
REMARK VINA RESULT:    -5.716      2.516      4.351
REMARK INTER + INTRA:          -6.198
REMARK INTER:                  -6.144
REMARK INTRA:                  -0.054
REMARK UNBOUND:                 0.019
REMARK  Name = 4.sdf
REMARK  2 active torsions:
REMARK  status: ('A' for Active; 'I' for Inactive)
REMARK    1  A    between atoms: C_9  and  C_10
REMARK    2  A    between atoms: C_10  and  O_11
REMARK                            x       y       z     vdW  Elec       q    Type
REMARK                         _______ _______ _______ _____ _____    ______ ____
ROOT
ATOM      1  C   UNL     1     -16.321 -14.051  19.291  0.00  0.00    -0.061 A 
ATOM      2  C   UNL     1     -15.926 -14.714  20.450  0.00  0.00    -0.060 A 
ATOM      3  C   UNL     1     -16.709 -14.666  21.606  0.00  0.00    -0.038 A 
ATOM      4  C   UNL     1     -17.898 -13.928  21.559  0.00  0.00    +0.047 A 
ATOM      5  C   UNL     1     -18.319 -13.241  20.417  0.00  0.00    +0.005 A 
ATOM      6  C   UNL     1     -17.513 -13.315  19.261  0.00  0.00    -0.052 A 
ATOM      7  N   UNL     1     -18.842 -13.714  22.534  0.00  0.00    -0.360 N 
ATOM      8  C   UNL     1     -19.836 -12.907  22.057  0.00  0.00    +0.008 A 
ATOM      9  C   UNL     1     -19.550 -12.580  20.744  0.00  0.00    +0.003 A 
ATOM     10  H   UNL     1     -18.808 -14.088  23.444  0.00  0.00    +0.000 HD
ENDROOT
BRANCH   9  11
ATOM     11  C   UNL     1     -20.362 -11.686  19.870  0.00  0.00    +0.071 C 
BRANCH  11  12
ATOM     12  O   UNL     1     -21.001 -12.406  18.821  0.00  0.00    -0.390 OA
ATOM     13  H   UNL     1     -21.895 -12.056  18.686  0.00  0.00    +0.000 HD
ENDBRANCH  11  12
ENDBRANCH   9  11
TORSDOF 2
ENDMDL
