MODEL 1
REMARK VINA RESULT:    -7.381      0.000      0.000
REMARK INTER + INTRA:          -9.499
REMARK INTER:                  -8.891
REMARK INTRA:                  -0.607
REMARK UNBOUND:                -0.607
REMARK  Name = 4a.pdb
REMARK  4 active torsions:
REMARK  status: ('A' for Active; 'I' for Inactive)
REMARK    1  A    between atoms: N_7  and  C_11
REMARK    2  A    between atoms: C_9  and  C_10
REMARK    3  A    between atoms: C_10  and  O_18
REMARK    4  A    between atoms: C_11  and  C_12
REMARK                            x       y       z     vdW  Elec       q    Type
REMARK                         _______ _______ _______ _____ _____    ______ ____
ROOT
ATOM      1  C   UNL     1     -18.605 -11.250  11.122  0.00  0.00    -0.061 A 
ATOM      2  C   UNL     1     -18.461 -10.319  12.143  0.00  0.00    -0.060 A 
ATOM      3  C   UNL     1     -17.512 -10.502  13.150  0.00  0.00    -0.038 A 
ATOM      4  C   UNL     1     -16.711 -11.657  13.114  0.00  0.00    +0.050 A 
ATOM      5  C   UNL     1     -16.833 -12.605  12.094  0.00  0.00    +0.005 A 
ATOM      6  C   UNL     1     -17.797 -12.391  11.083  0.00  0.00    -0.052 A 
ATOM      7  N   UNL     1     -15.725 -12.109  13.970  0.00  0.00    -0.342 N 
ATOM      8  C   UNL     1     -15.211 -13.293  13.503  0.00  0.00    +0.011 A 
ATOM      9  C   UNL     1     -15.874 -13.638  12.340  0.00  0.00    +0.003 A 
ENDROOT
BRANCH   9  10
ATOM     10  C   UNL     1     -15.623 -14.850  11.510  0.00  0.00    +0.071 C 
BRANCH  10  11
ATOM     11  O   UNL     1     -16.528 -15.900  11.837  0.00  0.00    -0.390 OA
ATOM     12  H   UNL     1     -16.792 -16.365  11.027  0.00  0.00    +0.000 HD
ENDBRANCH  10  11
ENDBRANCH   9  10
BRANCH   7  13
ATOM     13  C   UNL     1     -15.260 -11.435  15.179  0.00  0.00    +0.048 C 
BRANCH  13  14
ATOM     14  C   UNL     1     -16.165 -11.732  16.351  0.00  0.00    -0.028 A 
ATOM     15  C   UNL     1     -17.067 -13.308  17.972  0.00  0.00    -0.047 A 
ATOM     16  C   UNL     1     -17.685 -12.257  18.647  0.00  0.00    +0.018 A 
ATOM     17  C   UNL     1     -17.577 -10.952  18.170  0.00  0.00    -0.047 A 
ATOM     18  C   UNL     1     -16.820 -10.690  17.025  0.00  0.00    -0.056 A 
ATOM     19 BR   UNL     1     -18.648 -12.601  20.235  0.00  0.00    -0.050 Br
ATOM     20  C   UNL     1     -16.317 -13.045  16.824  0.00  0.00    -0.056 A 
ENDBRANCH  13  14
ENDBRANCH   7  13
TORSDOF 4
ENDMDL
MODEL 2
REMARK VINA RESULT:    -7.048      4.039      7.357
REMARK INTER + INTRA:          -9.097
REMARK INTER:                  -8.947
REMARK INTRA:                  -0.150
REMARK UNBOUND:                -0.607
REMARK  Name = 4a.pdb
REMARK  4 active torsions:
REMARK  status: ('A' for Active; 'I' for Inactive)
REMARK    1  A    between atoms: N_7  and  C_11
REMARK    2  A    between atoms: C_9  and  C_10
REMARK    3  A    between atoms: C_10  and  O_18
REMARK    4  A    between atoms: C_11  and  C_12
REMARK                            x       y       z     vdW  Elec       q    Type
REMARK                         _______ _______ _______ _____ _____    ______ ____
ROOT
ATOM      1  C   UNL     1     -19.637 -12.468  22.803  0.00  0.00    -0.061 A 
ATOM      2  C   UNL     1     -19.969 -11.365  22.026  0.00  0.00    -0.060 A 
ATOM      3  C   UNL     1     -19.363 -11.154  20.786  0.00  0.00    -0.038 A 
ATOM      4  C   UNL     1     -18.400 -12.078  20.345  0.00  0.00    +0.050 A 
ATOM      5  C   UNL     1     -18.054 -13.199  21.106  0.00  0.00    +0.005 A 
ATOM      6  C   UNL     1     -18.687 -13.391  22.354  0.00  0.00    -0.052 A 
ATOM      7  N   UNL     1     -17.632 -12.117  19.197  0.00  0.00    -0.342 N 
ATOM      8  C   UNL     1     -16.838 -13.237  19.205  0.00  0.00    +0.011 A 
ATOM      9  C   UNL     1     -17.067 -13.936  20.376  0.00  0.00    +0.003 A 
ENDROOT
BRANCH   9  10
ATOM     10  C   UNL     1     -16.413 -15.212  20.783  0.00  0.00    +0.071 C 
BRANCH  10  11
ATOM     11  O   UNL     1     -15.982 -15.164  22.140  0.00  0.00    -0.390 OA
ATOM     12  H   UNL     1     -16.733 -14.940  22.711  0.00  0.00    +0.000 HD
ENDBRANCH  10  11
ENDBRANCH   9  10
BRANCH   7  13
ATOM     13  C   UNL     1     -17.661 -11.143  18.109  0.00  0.00    +0.048 C 
BRANCH  13  14
ATOM     14  C   UNL     1     -17.087 -11.727  16.840  0.00  0.00    -0.028 A 
ATOM     15  C   UNL     1     -17.339 -13.115  14.856  0.00  0.00    -0.047 A 
ATOM     16  C   UNL     1     -16.111 -12.658  14.383  0.00  0.00    +0.018 A 
ATOM     17  C   UNL     1     -15.352 -11.765  15.138  0.00  0.00    -0.047 A 
ATOM     18  C   UNL     1     -15.839 -11.301  16.362  0.00  0.00    -0.056 A 
ATOM     19 BR   UNL     1     -15.487 -13.229  12.695  0.00  0.00    -0.050 Br
ATOM     20  C   UNL     1     -17.820 -12.656  16.084  0.00  0.00    -0.056 A 
ENDBRANCH  13  14
ENDBRANCH   7  13
TORSDOF 4
ENDMDL
MODEL 3
REMARK VINA RESULT:    -6.909      3.957      7.388
REMARK INTER + INTRA:          -8.930
REMARK INTER:                  -8.456
REMARK INTRA:                  -0.473
REMARK UNBOUND:                -0.607
REMARK  Name = 4a.pdb
REMARK  4 active torsions:
REMARK  status: ('A' for Active; 'I' for Inactive)
REMARK    1  A    between atoms: N_7  and  C_11
REMARK    2  A    between atoms: C_9  and  C_10
REMARK    3  A    between atoms: C_10  and  O_18
REMARK    4  A    between atoms: C_11  and  C_12
REMARK                            x       y       z     vdW  Elec       q    Type
REMARK                         _______ _______ _______ _____ _____    ______ ____
ROOT
ATOM      1  C   UNL     1     -19.824 -11.523  22.889  0.00  0.00    -0.061 A 
ATOM      2  C   UNL     1     -20.439 -10.922  21.797  0.00  0.00    -0.060 A 
ATOM      3  C   UNL     1     -20.073 -11.261  20.493  0.00  0.00    -0.038 A 
ATOM      4  C   UNL     1     -19.060 -12.217  20.309  0.00  0.00    +0.050 A 
ATOM      5  C   UNL     1     -18.431 -12.840  21.392  0.00  0.00    +0.005 A 
ATOM      6  C   UNL     1     -18.825 -12.483  22.700  0.00  0.00    -0.052 A 
ATOM      7  N   UNL     1     -18.483 -12.724  19.160  0.00  0.00    -0.342 N 
ATOM      8  C   UNL     1     -17.535 -13.661  19.490  0.00  0.00    +0.011 A 
ATOM      9  C   UNL     1     -17.468 -13.761  20.867  0.00  0.00    +0.003 A 
ENDROOT
BRANCH   9  10
ATOM     10  C   UNL     1     -16.570 -14.663  21.643  0.00  0.00    +0.071 C 
BRANCH  10  11
ATOM     11  O   UNL     1     -15.987 -15.659  20.808  0.00  0.00    -0.390 OA
ATOM     12  H   UNL     1     -15.329 -15.248  20.225  0.00  0.00    +0.000 HD
ENDBRANCH  10  11
ENDBRANCH   9  10
BRANCH   7  13
ATOM     13  C   UNL     1     -18.831 -12.360  17.790  0.00  0.00    +0.048 C 
BRANCH  13  14
ATOM     14  C   UNL     1     -17.593 -12.089  16.968  0.00  0.00    -0.028 A 
ATOM     15  C   UNL     1     -16.230 -12.533  15.001  0.00  0.00    -0.047 A 
ATOM     16  C   UNL     1     -15.408 -11.457  15.330  0.00  0.00    +0.018 A 
ATOM     17  C   UNL     1     -15.649 -10.713  16.484  0.00  0.00    -0.047 A 
ATOM     18  C   UNL     1     -16.738 -11.027  17.300  0.00  0.00    -0.056 A 
ATOM     19 BR   UNL     1     -13.979 -10.987  14.188  0.00  0.00    -0.050 Br
ATOM     20  C   UNL     1     -17.312 -12.851  15.823  0.00  0.00    -0.056 A 
ENDBRANCH  13  14
ENDBRANCH   7  13
TORSDOF 4
ENDMDL
