MODEL 1
REMARK VINA RESULT:    -7.565      0.000      0.000
REMARK INTER + INTRA:          -9.471
REMARK INTER:                  -9.113
REMARK INTRA:                  -0.358
REMARK UNBOUND:                -0.358
REMARK  Name = 4c.sdf
REMARK  4 active torsions:
REMARK  status: ('A' for Active; 'I' for Inactive)
REMARK    1  A    between atoms: N_7  and  C_11
REMARK    2  A    between atoms: C_9  and  C_10
REMARK    3  A    between atoms: C_10  and  O_19
REMARK    4  A    between atoms: C_11  and  C_12
REMARK                            x       y       z     vdW  Elec       q    Type
REMARK                         _______ _______ _______ _____ _____    ______ ____
ROOT
ATOM      1  C   UNL     1     -19.632 -12.407  22.667  0.00  0.00    -0.061 A 
ATOM      2  C   UNL     1     -20.430 -11.879  21.659  0.00  0.00    -0.060 A 
ATOM      3  C   UNL     1     -20.065 -11.992  20.316  0.00  0.00    -0.038 A 
ATOM      4  C   UNL     1     -18.871 -12.667  20.006  0.00  0.00    +0.050 A 
ATOM      5  C   UNL     1     -18.073 -13.241  20.999  0.00  0.00    +0.005 A 
ATOM      6  C   UNL     1     -18.455 -13.092  22.350  0.00  0.00    -0.052 A 
ATOM      7  N   UNL     1     -18.236 -12.897  18.798  0.00  0.00    -0.342 N 
ATOM      8  C   UNL     1     -17.107 -13.648  19.002  0.00  0.00    +0.011 A 
ATOM      9  C   UNL     1     -16.970 -13.888  20.356  0.00  0.00    +0.003 A 
ENDROOT
BRANCH   9  10
ATOM     10  C   UNL     1     -15.882 -14.654  21.027  0.00  0.00    +0.071 C 
BRANCH  10  11
ATOM     11  O   UNL     1     -16.255 -16.007  21.285  0.00  0.00    -0.390 OA
ATOM     12  H   UNL     1     -16.030 -16.235  22.201  0.00  0.00    +0.000 HD
ENDBRANCH  10  11
ENDBRANCH   9  10
BRANCH   7  13
ATOM     13  C   UNL     1     -18.625 -12.340  17.504  0.00  0.00    +0.048 C 
BRANCH  13  14
ATOM     14  C   UNL     1     -17.427 -12.085  16.622  0.00  0.00    -0.028 A 
ATOM     15  C   UNL     1     -16.531 -11.047  16.919  0.00  0.00    -0.055 A 
ATOM     16  C   UNL     1     -15.466 -10.760  16.062  0.00  0.00    -0.043 A 
ATOM     17  C   UNL     1     -15.285 -11.516  14.907  0.00  0.00    +0.041 A 
ATOM     18  C   UNL     1     -16.144 -12.573  14.615  0.00  0.00    -0.043 A 
ATOM     19  C   UNL     1     -17.211 -12.857  15.469  0.00  0.00    -0.055 A 
ATOM     20 CL   UNL     1     -14.002 -11.131  13.828  0.00  0.00    -0.084 Cl
ENDBRANCH  13  14
ENDBRANCH   7  13
TORSDOF 4
ENDMDL
MODEL 2
REMARK VINA RESULT:    -7.484      3.907      7.247
REMARK INTER + INTRA:          -9.373
REMARK INTER:                  -8.764
REMARK INTRA:                  -0.609
REMARK UNBOUND:                -0.358
REMARK  Name = 4c.sdf
REMARK  4 active torsions:
REMARK  status: ('A' for Active; 'I' for Inactive)
REMARK    1  A    between atoms: N_7  and  C_11
REMARK    2  A    between atoms: C_9  and  C_10
REMARK    3  A    between atoms: C_10  and  O_19
REMARK    4  A    between atoms: C_11  and  C_12
REMARK                            x       y       z     vdW  Elec       q    Type
REMARK                         _______ _______ _______ _____ _____    ______ ____
ROOT
ATOM      1  C   UNL     1     -18.605 -11.255  11.114  0.00  0.00    -0.061 A 
ATOM      2  C   UNL     1     -18.373 -10.257  12.054  0.00  0.00    -0.060 A 
ATOM      3  C   UNL     1     -17.379 -10.397  13.025  0.00  0.00    -0.038 A 
ATOM      4  C   UNL     1     -16.605 -11.571  13.020  0.00  0.00    +0.050 A 
ATOM      5  C   UNL     1     -16.792 -12.569  12.060  0.00  0.00    +0.005 A 
ATOM      6  C   UNL     1     -17.820 -12.412  11.106  0.00  0.00    -0.052 A 
ATOM      7  N   UNL     1     -15.598 -12.007  13.863  0.00  0.00    -0.342 N 
ATOM      8  C   UNL     1     -15.112 -13.211  13.422  0.00  0.00    +0.011 A 
ATOM      9  C   UNL     1     -15.823 -13.596  12.301  0.00  0.00    +0.003 A 
ENDROOT
BRANCH   9  10
ATOM     10  C   UNL     1     -15.637 -14.839  11.502  0.00  0.00    +0.071 C 
BRANCH  10  11
ATOM     11  O   UNL     1     -16.564 -15.861  11.869  0.00  0.00    -0.390 OA
ATOM     12  H   UNL     1     -16.105 -16.545  12.381  0.00  0.00    +0.000 HD
ENDBRANCH  10  11
ENDBRANCH   9  10
BRANCH   7  13
ATOM     13  C   UNL     1     -15.177 -11.360  15.105  0.00  0.00    +0.048 C 
BRANCH  13  14
ATOM     14  C   UNL     1     -16.120 -11.668  16.242  0.00  0.00    -0.028 A 
ATOM     15  C   UNL     1     -16.757 -10.630  16.941  0.00  0.00    -0.055 A 
ATOM     16  C   UNL     1     -17.567 -10.908  18.043  0.00  0.00    -0.043 A 
ATOM     17  C   UNL     1     -17.754 -12.227  18.449  0.00  0.00    +0.041 A 
ATOM     18  C   UNL     1     -17.159 -13.271  17.746  0.00  0.00    -0.043 A 
ATOM     19  C   UNL     1     -16.345 -12.993  16.646  0.00  0.00    -0.055 A 
ATOM     20 CL   UNL     1     -18.714 -12.564  19.836  0.00  0.00    -0.084 Cl
ENDBRANCH  13  14
ENDBRANCH   7  13
TORSDOF 4
ENDMDL
MODEL 3
REMARK VINA RESULT:    -7.107      4.326      7.840
REMARK INTER + INTRA:          -8.919
REMARK INTER:                  -8.319
REMARK INTRA:                  -0.600
REMARK UNBOUND:                -0.358
REMARK  Name = 4c.sdf
REMARK  4 active torsions:
REMARK  status: ('A' for Active; 'I' for Inactive)
REMARK    1  A    between atoms: N_7  and  C_11
REMARK    2  A    between atoms: C_9  and  C_10
REMARK    3  A    between atoms: C_10  and  O_19
REMARK    4  A    between atoms: C_11  and  C_12
REMARK                            x       y       z     vdW  Elec       q    Type
REMARK                         _______ _______ _______ _____ _____    ______ ____
ROOT
ATOM      1  C   UNL     1     -16.157 -13.546  11.061  0.00  0.00    -0.061 A 
ATOM      2  C   UNL     1     -15.531 -14.018  12.210  0.00  0.00    -0.060 A 
ATOM      3  C   UNL     1     -15.465 -13.238  13.367  0.00  0.00    -0.038 A 
ATOM      4  C   UNL     1     -16.060 -11.964  13.346  0.00  0.00    +0.050 A 
ATOM      5  C   UNL     1     -16.729 -11.485  12.216  0.00  0.00    +0.005 A 
ATOM      6  C   UNL     1     -16.761 -12.285  11.054  0.00  0.00    -0.052 A 
ATOM      7  N   UNL     1     -16.119 -10.965  14.301  0.00  0.00    -0.342 N 
ATOM      8  C   UNL     1     -16.855  -9.911  13.826  0.00  0.00    +0.011 A 
ATOM      9  C   UNL     1     -17.258 -10.194  12.535  0.00  0.00    +0.003 A 
ENDROOT
BRANCH   9  10
ATOM     10  C   UNL     1     -18.070  -9.325  11.636  0.00  0.00    +0.071 C 
BRANCH  10  11
ATOM     11  O   UNL     1     -17.353  -8.166  11.214  0.00  0.00    -0.390 OA
ATOM     12  H   UNL     1     -17.821  -7.748  10.474  0.00  0.00    +0.000 HD
ENDBRANCH  10  11
ENDBRANCH   9  10
BRANCH   7  13
ATOM     13  C   UNL     1     -15.415 -10.960  15.583  0.00  0.00    +0.048 C 
BRANCH  13  14
ATOM     14  C   UNL     1     -16.283 -11.490  16.698  0.00  0.00    -0.028 A 
ATOM     15  C   UNL     1     -17.038 -10.613  17.493  0.00  0.00    -0.055 A 
ATOM     16  C   UNL     1     -17.779 -11.093  18.574  0.00  0.00    -0.043 A 
ATOM     17  C   UNL     1     -17.779 -12.455  18.863  0.00  0.00    +0.041 A 
ATOM     18  C   UNL     1     -17.065 -13.344  18.064  0.00  0.00    -0.043 A 
ATOM     19  C   UNL     1     -16.320 -12.864  16.985  0.00  0.00    -0.055 A 
ATOM     20 CL   UNL     1     -18.655 -13.038  20.223  0.00  0.00    -0.084 Cl
ENDBRANCH  13  14
ENDBRANCH   7  13
TORSDOF 4
ENDMDL
