MODEL 1
REMARK VINA RESULT:    -7.970      0.000      0.000
REMARK INTER + INTRA:          -9.349
REMARK INTER:                  -9.135
REMARK INTRA:                  -0.213
REMARK UNBOUND:                -0.213
REMARK  Name = 4d.sdf
REMARK  3 active torsions:
REMARK  status: ('A' for Active; 'I' for Inactive)
REMARK    1  A    between atoms: C_9  and  C_10
REMARK    2  A    between atoms: C_10  and  O_18
REMARK    3  A    between atoms: C_11  and  C_12
REMARK                            x       y       z     vdW  Elec       q    Type
REMARK                         _______ _______ _______ _____ _____    ______ ____
ROOT
ATOM      1  C   UNL     1     -19.850 -12.680  22.352  0.00  0.00    -0.061 A 
ATOM      2  C   UNL     1     -20.128 -11.592  21.533  0.00  0.00    -0.060 A 
ATOM      3  C   UNL     1     -19.385 -11.357  20.374  0.00  0.00    -0.037 A 
ATOM      4  C   UNL     1     -18.339 -12.244  20.052  0.00  0.00    +0.057 A 
ATOM      5  C   UNL     1     -18.050 -13.349  20.862  0.00  0.00    +0.006 A 
ATOM      6  C   UNL     1     -18.818 -13.563  22.027  0.00  0.00    -0.052 A 
ATOM      7  N   UNL     1     -17.482 -12.286  18.953  0.00  0.00    -0.283 N 
ATOM      8  C   UNL     1     -16.632 -13.366  19.124  0.00  0.00    +0.019 A 
ATOM      9  C   UNL     1     -16.963 -14.055  20.269  0.00  0.00    +0.004 A 
ATOM     10  C   UNL     1     -17.467 -11.407  17.837  0.00  0.00    +0.263 C 
ATOM     11  O   UNL     1     -17.932 -10.281  17.973  0.00  0.00    -0.267 OA
ENDROOT
BRANCH  10  12
ATOM     12  C   UNL     1     -16.910 -11.800  16.516  0.00  0.00    +0.040 A 
ATOM     13  C   UNL     1     -15.690 -11.261  16.083  0.00  0.00    -0.049 A 
ATOM     14  C   UNL     1     -15.197 -11.577  14.817  0.00  0.00    -0.061 A 
ATOM     15  C   UNL     1     -15.903 -12.455  13.998  0.00  0.00    -0.062 A 
ATOM     16  C   UNL     1     -17.087 -13.040  14.453  0.00  0.00    -0.061 A 
ATOM     17  C   UNL     1     -17.590 -12.722  15.715  0.00  0.00    -0.049 A 
ENDBRANCH  10  12
BRANCH   9  18
ATOM     18  C   UNL     1     -16.304 -15.293  20.772  0.00  0.00    +0.071 C 
BRANCH  18  19
ATOM     19  O   UNL     1     -15.973 -15.177  22.150  0.00  0.00    -0.390 OA
ATOM     20  H   UNL     1     -16.704 -14.752  22.624  0.00  0.00    +0.000 HD
ENDBRANCH  18  19
ENDBRANCH   9  18
TORSDOF 3
ENDMDL
MODEL 2
REMARK VINA RESULT:    -7.257      3.884      8.375
REMARK INTER + INTRA:          -8.531
REMARK INTER:                  -8.212
REMARK INTRA:                  -0.318
REMARK UNBOUND:                -0.213
REMARK  Name = 4d.sdf
REMARK  3 active torsions:
REMARK  status: ('A' for Active; 'I' for Inactive)
REMARK    1  A    between atoms: C_9  and  C_10
REMARK    2  A    between atoms: C_10  and  O_18
REMARK    3  A    between atoms: C_11  and  C_12
REMARK                            x       y       z     vdW  Elec       q    Type
REMARK                         _______ _______ _______ _____ _____    ______ ____
ROOT
ATOM      1  C   UNL     1     -16.211 -14.584   9.262  0.00  0.00    -0.061 A 
ATOM      2  C   UNL     1     -15.236 -14.950  10.181  0.00  0.00    -0.060 A 
ATOM      3  C   UNL     1     -15.171 -14.345  11.439  0.00  0.00    -0.037 A 
ATOM      4  C   UNL     1     -16.112 -13.347  11.757  0.00  0.00    +0.057 A 
ATOM      5  C   UNL     1     -17.107 -12.971  10.844  0.00  0.00    +0.006 A 
ATOM      6  C   UNL     1     -17.149 -13.599   9.581  0.00  0.00    -0.052 A 
ATOM      7  N   UNL     1     -16.316 -12.623  12.931  0.00  0.00    -0.283 N 
ATOM      8  C   UNL     1     -17.381 -11.763  12.714  0.00  0.00    +0.019 A 
ATOM      9  C   UNL     1     -17.905 -11.962  11.458  0.00  0.00    +0.004 A 
ATOM     10  C   UNL     1     -15.593 -12.733  14.148  0.00  0.00    +0.263 C 
ATOM     11  O   UNL     1     -14.450 -13.175  14.112  0.00  0.00    -0.267 OA
ENDROOT
BRANCH  10  12
ATOM     12  C   UNL     1     -16.168 -12.334  15.460  0.00  0.00    +0.040 A 
ATOM     13  C   UNL     1     -15.805 -11.109  16.039  0.00  0.00    -0.049 A 
ATOM     14  C   UNL     1     -16.292 -10.761  17.299  0.00  0.00    -0.061 A 
ATOM     15  C   UNL     1     -17.165 -11.618  17.965  0.00  0.00    -0.062 A 
ATOM     16  C   UNL     1     -17.574 -12.810  17.363  0.00  0.00    -0.061 A 
ATOM     17  C   UNL     1     -17.084 -13.168  16.106  0.00  0.00    -0.049 A 
ENDBRANCH  10  12
BRANCH   9  18
ATOM     18  C   UNL     1     -19.079 -11.255  10.873  0.00  0.00    +0.071 C 
BRANCH  18  19
ATOM     19  O   UNL     1     -18.956  -9.846  11.020  0.00  0.00    -0.390 OA
ATOM     20  H   UNL     1     -18.288  -9.512  10.401  0.00  0.00    +0.000 HD
ENDBRANCH  18  19
ENDBRANCH   9  18
TORSDOF 3
ENDMDL
MODEL 3
REMARK VINA RESULT:    -7.072      1.814      3.295
REMARK INTER + INTRA:          -8.319
REMARK INTER:                  -7.993
REMARK INTRA:                  -0.326
REMARK UNBOUND:                -0.213
REMARK  Name = 4d.sdf
REMARK  3 active torsions:
REMARK  status: ('A' for Active; 'I' for Inactive)
REMARK    1  A    between atoms: C_9  and  C_10
REMARK    2  A    between atoms: C_10  and  O_18
REMARK    3  A    between atoms: C_11  and  C_12
REMARK                            x       y       z     vdW  Elec       q    Type
REMARK                         _______ _______ _______ _____ _____    ______ ____
ROOT
ATOM      1  C   UNL     1     -18.830 -13.184  22.365  0.00  0.00    -0.061 A 
ATOM      2  C   UNL     1     -17.594 -13.700  21.994  0.00  0.00    -0.060 A 
ATOM      3  C   UNL     1     -17.156 -13.633  20.669  0.00  0.00    -0.037 A 
ATOM      4  C   UNL     1     -17.996 -13.036  19.710  0.00  0.00    +0.057 A 
ATOM      5  C   UNL     1     -19.242 -12.504  20.068  0.00  0.00    +0.006 A 
ATOM      6  C   UNL     1     -19.659 -12.585  21.414  0.00  0.00    -0.052 A 
ATOM      7  N   UNL     1     -17.802 -12.789  18.351  0.00  0.00    -0.283 N 
ATOM      8  C   UNL     1     -18.946 -12.174  17.869  0.00  0.00    +0.019 A 
ATOM      9  C   UNL     1     -19.840 -11.962  18.893  0.00  0.00    +0.004 A 
ATOM     10  C   UNL     1     -16.649 -13.086  17.578  0.00  0.00    +0.263 C 
ATOM     11  O   UNL     1     -15.902 -13.980  17.960  0.00  0.00    -0.267 OA
ENDROOT
BRANCH  10  12
ATOM     12  C   UNL     1     -16.316 -12.357  16.325  0.00  0.00    +0.040 A 
ATOM     13  C   UNL     1     -16.582 -12.947  15.081  0.00  0.00    -0.049 A 
ATOM     14  C   UNL     1     -16.211 -12.294  13.906  0.00  0.00    -0.061 A 
ATOM     15  C   UNL     1     -15.606 -11.041  13.970  0.00  0.00    -0.062 A 
ATOM     16  C   UNL     1     -15.396 -10.426  15.207  0.00  0.00    -0.061 A 
ATOM     17  C   UNL     1     -15.757 -11.078  16.387  0.00  0.00    -0.049 A 
ENDBRANCH  10  12
BRANCH   9  18
ATOM     18  C   UNL     1     -21.167 -11.294  18.778  0.00  0.00    +0.071 C 
BRANCH  18  19
ATOM     19  O   UNL     1     -22.126 -12.155  18.177  0.00  0.00    -0.390 OA
ATOM     20  H   UNL     1     -22.764 -12.446  18.848  0.00  0.00    +0.000 HD
ENDBRANCH  18  19
ENDBRANCH   9  18
TORSDOF 3
ENDMDL
