MODEL 1
REMARK VINA RESULT:    -8.175      0.000      0.000
REMARK INTER + INTRA:         -11.428
REMARK INTER:                 -10.565
REMARK INTRA:                  -0.863
REMARK UNBOUND:                -0.863
REMARK  Name = 5c.sdf
REMARK  6 active torsions:
REMARK  status: ('A' for Active; 'I' for Inactive)
REMARK    1  A    between atoms: N_7  and  C_12
REMARK    2  A    between atoms: C_9  and  C_10
REMARK    3  A    between atoms: C_11  and  C_20
REMARK    4  A    between atoms: C_12  and  C_13
REMARK    5  A    between atoms: C_20  and  O_21
REMARK    6  A    between atoms: O_21  and  C_23
REMARK                            x       y       z     vdW  Elec       q    Type
REMARK                         _______ _______ _______ _____ _____    ______ ____
ROOT
ATOM      1  C   UNL     1     -19.739 -10.490  13.115  0.00  0.00    -0.061 A 
ATOM      2  C   UNL     1     -19.523  -9.714  14.247  0.00  0.00    -0.060 A 
ATOM      3  C   UNL     1     -18.472 -10.000  15.125  0.00  0.00    -0.038 A 
ATOM      4  C   UNL     1     -17.634 -11.090  14.831  0.00  0.00    +0.050 A 
ATOM      5  C   UNL     1     -17.809 -11.863  13.675  0.00  0.00    +0.007 A 
ATOM      6  C   UNL     1     -18.888 -11.557  12.817  0.00  0.00    -0.052 A 
ATOM      7  N   UNL     1     -16.559 -11.630  15.517  0.00  0.00    -0.342 N 
ATOM      8  C   UNL     1     -16.024 -12.677  14.798  0.00  0.00    +0.013 A 
ATOM      9  C   UNL     1     -16.766 -12.841  13.648  0.00  0.00    +0.000 A 
ENDROOT
BRANCH   9  10
ATOM     10  C   UNL     1     -16.539 -13.811  12.615  0.00  0.00    -0.046 C 
ATOM     11  C   UNL     1     -15.539 -13.780  11.720  0.00  0.00    +0.023 C 
BRANCH  11  12
ATOM     12  C   UNL     1     -15.318 -14.772  10.648  0.00  0.00    +0.332 C 
ATOM     13  O   UNL     1     -14.194 -15.163  10.362  0.00  0.00    -0.246 OA
BRANCH  12  14
ATOM     14  O   UNL     1     -16.468 -15.175  10.057  0.00  0.00    -0.465 OA
ATOM     15  C   UNL     1     -16.830 -14.392   8.916  0.00  0.00    +0.082 C 
ENDBRANCH  12  14
ENDBRANCH  11  12
ENDBRANCH   9  10
BRANCH   7  16
ATOM     16  C   UNL     1     -16.086 -11.221  16.839  0.00  0.00    +0.048 C 
BRANCH  16  17
ATOM     17  C   UNL     1     -16.803 -11.972  17.934  0.00  0.00    -0.028 A 
ATOM     18  C   UNL     1     -17.896 -11.393  18.598  0.00  0.00    -0.055 A 
ATOM     19  C   UNL     1     -18.459 -12.016  19.713  0.00  0.00    -0.043 A 
ATOM     20  C   UNL     1     -17.946 -13.231  20.160  0.00  0.00    +0.041 A 
ATOM     21  C   UNL     1     -16.906 -13.852  19.472  0.00  0.00    -0.043 A 
ATOM     22  C   UNL     1     -16.338 -13.227  18.360  0.00  0.00    -0.055 A 
ATOM     23 CL   UNL     1     -18.579 -13.953  21.587  0.00  0.00    -0.084 Cl
ENDBRANCH  16  17
ENDBRANCH   7  16
TORSDOF 5
ENDMDL
MODEL 2
REMARK VINA RESULT:    -7.556      4.442      7.209
REMARK INTER + INTRA:         -10.628
REMARK INTER:                  -9.768
REMARK INTRA:                  -0.861
REMARK UNBOUND:                -0.863
REMARK  Name = 5c.sdf
REMARK  6 active torsions:
REMARK  status: ('A' for Active; 'I' for Inactive)
REMARK    1  A    between atoms: N_7  and  C_12
REMARK    2  A    between atoms: C_9  and  C_10
REMARK    3  A    between atoms: C_11  and  C_20
REMARK    4  A    between atoms: C_12  and  C_13
REMARK    5  A    between atoms: C_20  and  O_21
REMARK    6  A    between atoms: O_21  and  C_23
REMARK                            x       y       z     vdW  Elec       q    Type
REMARK                         _______ _______ _______ _____ _____    ______ ____
ROOT
ATOM      1  C   UNL     1     -19.952 -10.833  17.279  0.00  0.00    -0.061 A 
ATOM      2  C   UNL     1     -19.511 -10.163  16.144  0.00  0.00    -0.060 A 
ATOM      3  C   UNL     1     -18.252 -10.427  15.597  0.00  0.00    -0.038 A 
ATOM      4  C   UNL     1     -17.440 -11.392  16.220  0.00  0.00    +0.050 A 
ATOM      5  C   UNL     1     -17.879 -12.108  17.342  0.00  0.00    +0.007 A 
ATOM      6  C   UNL     1     -19.150 -11.808  17.878  0.00  0.00    -0.052 A 
ATOM      7  N   UNL     1     -16.159 -11.831  15.938  0.00  0.00    -0.342 N 
ATOM      8  C   UNL     1     -15.806 -12.836  16.812  0.00  0.00    +0.013 A 
ATOM      9  C   UNL     1     -16.851 -13.040  17.687  0.00  0.00    +0.000 A 
ENDROOT
BRANCH   9  10
ATOM     10  C   UNL     1     -16.903 -14.006  18.747  0.00  0.00    -0.046 C 
ATOM     11  C   UNL     1     -16.683 -13.751  20.048  0.00  0.00    +0.023 C 
BRANCH  11  12
ATOM     12  C   UNL     1     -16.722 -14.752  21.135  0.00  0.00    +0.332 C 
ATOM     13  O   UNL     1     -15.854 -15.606  21.246  0.00  0.00    -0.246 OA
BRANCH  12  14
ATOM     14  O   UNL     1     -17.792 -14.601  21.952  0.00  0.00    -0.465 OA
ATOM     15  C   UNL     1     -18.148 -13.235  22.182  0.00  0.00    +0.082 C 
ENDBRANCH  12  14
ENDBRANCH  11  12
ENDBRANCH   9  10
BRANCH   7  16
ATOM     16  C   UNL     1     -15.262 -11.280  14.922  0.00  0.00    +0.048 C 
BRANCH  16  17
ATOM     17  C   UNL     1     -15.515 -11.904  13.571  0.00  0.00    -0.028 A 
ATOM     18  C   UNL     1     -16.179 -11.184  12.566  0.00  0.00    -0.055 A 
ATOM     19  C   UNL     1     -16.553 -11.809  11.376  0.00  0.00    -0.043 A 
ATOM     20  C   UNL     1     -16.251 -13.153  11.174  0.00  0.00    +0.041 A 
ATOM     21  C   UNL     1     -15.532 -13.864  12.133  0.00  0.00    -0.043 A 
ATOM     22  C   UNL     1     -15.162 -13.241  13.326  0.00  0.00    -0.055 A 
ATOM     23 CL   UNL     1     -16.792 -13.947   9.748  0.00  0.00    -0.084 Cl
ENDBRANCH  16  17
ENDBRANCH   7  16
TORSDOF 5
ENDMDL
MODEL 3
REMARK VINA RESULT:    -7.453      3.330      5.787
REMARK INTER + INTRA:         -10.495
REMARK INTER:                  -9.616
REMARK INTRA:                  -0.878
REMARK UNBOUND:                -0.863
REMARK  Name = 5c.sdf
REMARK  6 active torsions:
REMARK  status: ('A' for Active; 'I' for Inactive)
REMARK    1  A    between atoms: N_7  and  C_12
REMARK    2  A    between atoms: C_9  and  C_10
REMARK    3  A    between atoms: C_11  and  C_20
REMARK    4  A    between atoms: C_12  and  C_13
REMARK    5  A    between atoms: C_20  and  O_21
REMARK    6  A    between atoms: O_21  and  C_23
REMARK                            x       y       z     vdW  Elec       q    Type
REMARK                         _______ _______ _______ _____ _____    ______ ____
ROOT
ATOM      1  C   UNL     1     -16.235 -14.673  20.781  0.00  0.00    -0.061 A 
ATOM      2  C   UNL     1     -17.335 -14.370  21.574  0.00  0.00    -0.060 A 
ATOM      3  C   UNL     1     -18.329 -13.498  21.120  0.00  0.00    -0.038 A 
ATOM      4  C   UNL     1     -18.194 -12.938  19.837  0.00  0.00    +0.050 A 
ATOM      5  C   UNL     1     -17.113 -13.260  19.005  0.00  0.00    +0.007 A 
ATOM      6  C   UNL     1     -16.119 -14.133  19.498  0.00  0.00    -0.052 A 
ATOM      7  N   UNL     1     -18.978 -12.032  19.146  0.00  0.00    -0.342 N 
ATOM      8  C   UNL     1     -18.453 -11.823  17.889  0.00  0.00    +0.013 A 
ATOM      9  C   UNL     1     -17.305 -12.575  17.765  0.00  0.00    +0.000 A 
ENDROOT
BRANCH   9  10
ATOM     10  C   UNL     1     -16.459 -12.658  16.609  0.00  0.00    -0.046 C 
ATOM     11  C   UNL     1     -15.891 -11.616  15.980  0.00  0.00    +0.023 C 
BRANCH  11  12
ATOM     12  C   UNL     1     -15.031 -11.706  14.780  0.00  0.00    +0.332 C 
ATOM     13  O   UNL     1     -14.654 -10.703  14.191  0.00  0.00    -0.246 OA
BRANCH  12  14
ATOM     14  O   UNL     1     -14.730 -12.982  14.442  0.00  0.00    -0.465 OA
ATOM     15  C   UNL     1     -15.187 -13.351  13.137  0.00  0.00    +0.082 C 
ENDBRANCH  12  14
ENDBRANCH  11  12
ENDBRANCH   9  10
BRANCH   7  16
ATOM     16  C   UNL     1     -20.151 -11.331  19.669  0.00  0.00    +0.048 C 
BRANCH  16  17
ATOM     17  C   UNL     1     -19.758 -10.051  20.365  0.00  0.00    -0.028 A 
ATOM     18  C   UNL     1     -19.642  -8.853  19.642  0.00  0.00    -0.055 A 
ATOM     19  C   UNL     1     -19.128  -7.706  20.250  0.00  0.00    -0.043 A 
ATOM     20  C   UNL     1     -18.745  -7.743  21.588  0.00  0.00    +0.041 A 
ATOM     21  C   UNL     1     -18.918  -8.904  22.337  0.00  0.00    -0.043 A 
ATOM     22  C   UNL     1     -19.427 -10.054  21.730  0.00  0.00    -0.055 A 
ATOM     23 CL   UNL     1     -18.027  -6.357  22.310  0.00  0.00    -0.084 Cl
ENDBRANCH  16  17
ENDBRANCH   7  16
TORSDOF 5
ENDMDL
