MODEL 1
REMARK VINA RESULT:    -6.564      0.000      0.000
REMARK INTER + INTRA:          -8.615
REMARK INTER:                  -8.291
REMARK INTRA:                  -0.324
REMARK UNBOUND:                -0.324
REMARK  Name = 6.sdf
REMARK  6 active torsions:
REMARK  status: ('A' for Active; 'I' for Inactive)
REMARK    1  A    between atoms: C_9  and  C_10
REMARK    2  A    between atoms: C_10  and  C_11
REMARK    3  A    between atoms: C_11  and  C_12
REMARK    4  A    between atoms: C_11  and  N_15
REMARK    5  A    between atoms: C_12  and  O_13
REMARK    6  A    between atoms: O_13  and  C_16
REMARK                            x       y       z     vdW  Elec       q    Type
REMARK                         _______ _______ _______ _____ _____    ______ ____
ROOT
ATOM      1  C   UNL     1     -19.790 -12.550  20.998  0.00  0.00    -0.061 A 
ATOM      2  C   UNL     1     -19.232 -13.190  22.102  0.00  0.00    -0.060 A 
ATOM      3  C   UNL     1     -18.012 -13.862  21.997  0.00  0.00    -0.038 A 
ATOM      4  C   UNL     1     -17.365 -13.850  20.756  0.00  0.00    +0.047 A 
ATOM      5  C   UNL     1     -17.884 -13.197  19.635  0.00  0.00    +0.003 A 
ATOM      6  C   UNL     1     -19.130 -12.547  19.762  0.00  0.00    -0.052 A 
ATOM      7  N   UNL     1     -16.171 -14.414  20.380  0.00  0.00    -0.360 N 
ATOM      8  C   UNL     1     -15.892 -14.111  19.077  0.00  0.00    +0.006 A 
ATOM      9  C   UNL     1     -16.928 -13.345  18.574  0.00  0.00    -0.020 A 
ATOM     10  H   UNL     1     -15.597 -14.960  20.965  0.00  0.00    +0.000 HD
ENDROOT
BRANCH   9  11
ATOM     11  C   UNL     1     -16.997 -12.745  17.198  0.00  0.00    -0.000 C 
BRANCH  11  12
ATOM     12  C   UNL     1     -16.210 -11.439  17.033  0.00  0.00    +0.107 C 
BRANCH  12  13
ATOM     13  N   UNL     1     -17.075 -10.277  17.386  0.00  0.00    -0.318 N 
ATOM     14  H   UNL     1     -17.987 -10.614  17.694  0.00  0.00    +0.000 HD
ATOM     15  H   UNL     1     -17.191  -9.678  16.569  0.00  0.00    +0.000 HD
ATOM     16  H   UNL     1     -16.639  -9.745  18.139  0.00  0.00    +0.000 HD
ENDBRANCH  12  13
BRANCH  12  17
ATOM     17  C   UNL     1     -15.733 -11.308  15.579  0.00  0.00    +0.324 C 
ATOM     18  O   UNL     1     -15.183 -10.311  15.126  0.00  0.00    -0.249 OA
BRANCH  17  19
ATOM     19  O   UNL     1     -16.007 -12.448  14.888  0.00  0.00    -0.467 OA
ATOM     20  C   UNL     1     -15.068 -12.822  13.878  0.00  0.00    +0.082 C 
ENDBRANCH  17  19
ENDBRANCH  12  17
ENDBRANCH  11  12
ENDBRANCH   9  11
TORSDOF 5
ENDMDL
MODEL 2
REMARK VINA RESULT:    -6.420      1.461      2.233
REMARK INTER + INTRA:          -8.432
REMARK INTER:                  -8.165
REMARK INTRA:                  -0.267
REMARK UNBOUND:                -0.324
REMARK  Name = 6.sdf
REMARK  6 active torsions:
REMARK  status: ('A' for Active; 'I' for Inactive)
REMARK    1  A    between atoms: C_9  and  C_10
REMARK    2  A    between atoms: C_10  and  C_11
REMARK    3  A    between atoms: C_11  and  C_12
REMARK    4  A    between atoms: C_11  and  N_15
REMARK    5  A    between atoms: C_12  and  O_13
REMARK    6  A    between atoms: O_13  and  C_16
REMARK                            x       y       z     vdW  Elec       q    Type
REMARK                         _______ _______ _______ _____ _____    ______ ____
ROOT
ATOM      1  C   UNL     1     -16.247 -14.661  20.620  0.00  0.00    -0.061 A 
ATOM      2  C   UNL     1     -17.165 -14.304  21.604  0.00  0.00    -0.060 A 
ATOM      3  C   UNL     1     -18.196 -13.403  21.326  0.00  0.00    -0.038 A 
ATOM      4  C   UNL     1     -18.284 -12.894  20.026  0.00  0.00    +0.047 A 
ATOM      5  C   UNL     1     -17.396 -13.249  19.008  0.00  0.00    +0.003 A 
ATOM      6  C   UNL     1     -16.348 -14.142  19.323  0.00  0.00    -0.052 A 
ATOM      7  N   UNL     1     -19.189 -12.012  19.485  0.00  0.00    -0.360 N 
ATOM      8  C   UNL     1     -18.933 -11.827  18.155  0.00  0.00    +0.006 A 
ATOM      9  C   UNL     1     -17.829 -12.586  17.811  0.00  0.00    -0.020 A 
ATOM     10  H   UNL     1     -19.916 -11.576  19.984  0.00  0.00    +0.000 HD
ENDROOT
BRANCH   9  11
ATOM     11  C   UNL     1     -17.244 -12.721  16.433  0.00  0.00    -0.000 C 
BRANCH  11  12
ATOM     12  C   UNL     1     -15.885 -12.035  16.248  0.00  0.00    +0.107 C 
BRANCH  12  13
ATOM     13  N   UNL     1     -15.899 -10.695  16.903  0.00  0.00    -0.318 N 
ATOM     14  H   UNL     1     -16.627 -10.674  17.617  0.00  0.00    +0.000 HD
ATOM     15  H   UNL     1     -16.087  -9.977  16.204  0.00  0.00    +0.000 HD
ATOM     16  H   UNL     1     -14.993 -10.519  17.337  0.00  0.00    +0.000 HD
ENDBRANCH  12  13
BRANCH  12  17
ATOM     17  C   UNL     1     -15.590 -11.877  14.750  0.00  0.00    +0.324 C 
ATOM     18  O   UNL     1     -15.991 -10.942  14.068  0.00  0.00    -0.249 OA
BRANCH  17  19
ATOM     19  O   UNL     1     -14.827 -12.914  14.307  0.00  0.00    -0.467 OA
ATOM     20  C   UNL     1     -15.211 -13.502  13.063  0.00  0.00    +0.082 C 
ENDBRANCH  17  19
ENDBRANCH  12  17
ENDBRANCH  11  12
ENDBRANCH   9  11
TORSDOF 5
ENDMDL
MODEL 3
REMARK VINA RESULT:    -6.033      1.986      2.399
REMARK INTER + INTRA:          -7.943
REMARK INTER:                  -7.568
REMARK INTRA:                  -0.375
REMARK UNBOUND:                -0.324
REMARK  Name = 6.sdf
REMARK  6 active torsions:
REMARK  status: ('A' for Active; 'I' for Inactive)
REMARK    1  A    between atoms: C_9  and  C_10
REMARK    2  A    between atoms: C_10  and  C_11
REMARK    3  A    between atoms: C_11  and  C_12
REMARK    4  A    between atoms: C_11  and  N_15
REMARK    5  A    between atoms: C_12  and  O_13
REMARK    6  A    between atoms: O_13  and  C_16
REMARK                            x       y       z     vdW  Elec       q    Type
REMARK                         _______ _______ _______ _____ _____    ______ ____
ROOT
ATOM      1  C   UNL     1     -18.363 -13.595  21.796  0.00  0.00    -0.061 A 
ATOM      2  C   UNL     1     -17.273 -14.444  21.964  0.00  0.00    -0.060 A 
ATOM      3  C   UNL     1     -16.393 -14.695  20.908  0.00  0.00    -0.038 A 
ATOM      4  C   UNL     1     -16.635 -14.049  19.691  0.00  0.00    +0.047 A 
ATOM      5  C   UNL     1     -17.705 -13.172  19.494  0.00  0.00    +0.003 A 
ATOM      6  C   UNL     1     -18.592 -12.956  20.570  0.00  0.00    -0.052 A 
ATOM      7  N   UNL     1     -15.936 -14.108  18.509  0.00  0.00    -0.360 N 
ATOM      8  C   UNL     1     -16.498 -13.272  17.584  0.00  0.00    +0.006 A 
ATOM      9  C   UNL     1     -17.598 -12.660  18.157  0.00  0.00    -0.020 A 
ATOM     10  H   UNL     1     -15.146 -14.672  18.350  0.00  0.00    +0.000 HD
ENDROOT
BRANCH   9  11
ATOM     11  C   UNL     1     -18.468 -11.620  17.509  0.00  0.00    -0.000 C 
BRANCH  11  12
ATOM     12  C   UNL     1     -18.133 -11.337  16.039  0.00  0.00    +0.107 C 
BRANCH  12  13
ATOM     13  N   UNL     1     -18.187  -9.869  15.780  0.00  0.00    -0.318 N 
ATOM     14  H   UNL     1     -17.428  -9.408  16.281  0.00  0.00    +0.000 HD
ATOM     15  H   UNL     1     -19.081  -9.500  16.103  0.00  0.00    +0.000 HD
ATOM     16  H   UNL     1     -18.089  -9.697  14.780  0.00  0.00    +0.000 HD
ENDBRANCH  12  13
BRANCH  12  17
ATOM     17  C   UNL     1     -19.142 -12.060  15.136  0.00  0.00    +0.324 C 
ATOM     18  O   UNL     1     -20.289 -12.331  15.469  0.00  0.00    -0.249 OA
BRANCH  17  19
ATOM     19  O   UNL     1     -18.577 -12.344  13.930  0.00  0.00    -0.467 OA
ATOM     20  C   UNL     1     -17.314 -13.012  13.960  0.00  0.00    +0.082 C 
ENDBRANCH  17  19
ENDBRANCH  12  17
ENDBRANCH  11  12
ENDBRANCH   9  11
TORSDOF 5
ENDMDL
