MODEL 1
REMARK VINA RESULT:    -8.782      0.000      0.000
REMARK INTER + INTRA:         -12.234
REMARK INTER:                 -11.350
REMARK INTRA:                  -0.885
REMARK UNBOUND:                -0.885
REMARK  Name = 8b.sdf
REMARK  5 active torsions:
REMARK  status: ('A' for Active; 'I' for Inactive)
REMARK    1  A    between atoms: N_7  and  C_12
REMARK    2  A    between atoms: C_9  and  C_10
REMARK    3  A    between atoms: N_11  and  N_19
REMARK    4  A    between atoms: C_12  and  C_13
REMARK    5  A    between atoms: C_20  and  C_22
REMARK                            x       y       z     vdW  Elec       q    Type
REMARK                         _______ _______ _______ _____ _____    ______ ____
ROOT
ATOM      1  C   UNL     1     -16.271 -14.739  21.095  0.00  0.00    -0.061 A 
ATOM      2  C   UNL     1     -17.198 -14.284  22.025  0.00  0.00    -0.060 A 
ATOM      3  C   UNL     1     -18.224 -13.408  21.651  0.00  0.00    -0.038 A 
ATOM      4  C   UNL     1     -18.298 -12.998  20.309  0.00  0.00    +0.050 A 
ATOM      5  C   UNL     1     -17.407 -13.490  19.345  0.00  0.00    +0.009 A 
ATOM      6  C   UNL     1     -16.375 -14.363  19.755  0.00  0.00    -0.052 A 
ATOM      7  N   UNL     1     -19.136 -12.107  19.661  0.00  0.00    -0.342 N 
ATOM      8  C   UNL     1     -18.851 -12.096  18.318  0.00  0.00    +0.015 A 
ATOM      9  C   UNL     1     -17.798 -12.956  18.078  0.00  0.00    +0.020 A 
ENDROOT
BRANCH   9  10
ATOM     10  C   UNL     1     -17.214 -13.245  16.785  0.00  0.00    +0.055 C 
ATOM     11  N   UNL     1     -16.815 -12.273  16.029  0.00  0.00    -0.187 NA
BRANCH  11  12
ATOM     12  N   UNL     1     -16.291 -12.631  14.820  0.00  0.00    -0.203 N 
ATOM     13  C   UNL     1     -17.127 -12.717  13.711  0.00  0.00    +0.263 C 
ATOM     14  O   UNL     1     -18.328 -12.479  13.711  0.00  0.00    -0.268 OA
ATOM     15  H   UNL     1     -15.330 -12.827  14.734  0.00  0.00    +0.000 HD
BRANCH  13  16
ATOM     16  C   UNL     1     -16.461 -13.091  12.430  0.00  0.00    +0.038 A 
ATOM     17  C   UNL     1     -15.975 -12.137  11.525  0.00  0.00    -0.049 A 
ATOM     18  C   UNL     1     -15.371 -12.545  10.331  0.00  0.00    -0.047 A 
ATOM     19  C   UNL     1     -15.244 -13.904  10.045  0.00  0.00    +0.018 A 
ATOM     20  C   UNL     1     -15.696 -14.861  10.950  0.00  0.00    -0.047 A 
ATOM     21  C   UNL     1     -16.300 -14.455  12.143  0.00  0.00    -0.049 A 
ATOM     22 BR   UNL     1     -14.444 -14.450   8.422  0.00  0.00    -0.050 Br
ENDBRANCH  13  16
ENDBRANCH  11  12
ENDBRANCH   9  10
BRANCH   7  23
ATOM     23  C   UNL     1     -20.096 -11.198  20.286  0.00  0.00    +0.048 C 
BRANCH  23  24
ATOM     24  C   UNL     1     -19.524  -9.819  20.486  0.00  0.00    -0.025 A 
ATOM     25  C   UNL     1     -18.711  -9.534  21.587  0.00  0.00    -0.039 A 
ATOM     26  C   UNL     1     -18.272  -8.233  21.773  0.00  0.00    +0.028 A 
ATOM     27  N   UNL     1     -18.561  -7.215  20.938  0.00  0.00    -0.263 NA
ATOM     28  C   UNL     1     -19.325  -7.512  19.865  0.00  0.00    +0.028 A 
ATOM     29  C   UNL     1     -19.819  -8.779  19.597  0.00  0.00    -0.039 A 
ENDBRANCH  23  24
ENDBRANCH   7  23
TORSDOF 5
ENDMDL
MODEL 2
REMARK VINA RESULT:    -8.697      1.574      2.542
REMARK INTER + INTRA:         -12.124
REMARK INTER:                 -11.377
REMARK INTRA:                  -0.746
REMARK UNBOUND:                -0.885
REMARK  Name = 8b.sdf
REMARK  5 active torsions:
REMARK  status: ('A' for Active; 'I' for Inactive)
REMARK    1  A    between atoms: N_7  and  C_12
REMARK    2  A    between atoms: C_9  and  C_10
REMARK    3  A    between atoms: N_11  and  N_19
REMARK    4  A    between atoms: C_12  and  C_13
REMARK    5  A    between atoms: C_20  and  C_22
REMARK                            x       y       z     vdW  Elec       q    Type
REMARK                         _______ _______ _______ _____ _____    ______ ____
ROOT
ATOM      1  C   UNL     1     -16.270 -14.741  20.990  0.00  0.00    -0.061 A 
ATOM      2  C   UNL     1     -17.075 -14.185  21.977  0.00  0.00    -0.060 A 
ATOM      3  C   UNL     1     -18.032 -13.213  21.664  0.00  0.00    -0.038 A 
ATOM      4  C   UNL     1     -18.164 -12.810  20.323  0.00  0.00    +0.050 A 
ATOM      5  C   UNL     1     -17.401 -13.401  19.306  0.00  0.00    +0.009 A 
ATOM      6  C   UNL     1     -16.435 -14.369  19.654  0.00  0.00    -0.052 A 
ATOM      7  N   UNL     1     -18.955 -11.846  19.724  0.00  0.00    -0.342 N 
ATOM      8  C   UNL     1     -18.771 -11.877  18.364  0.00  0.00    +0.015 A 
ATOM      9  C   UNL     1     -17.830 -12.841  18.062  0.00  0.00    +0.020 A 
ENDROOT
BRANCH   9  10
ATOM     10  C   UNL     1     -17.376 -13.202  16.735  0.00  0.00    +0.055 C 
ATOM     11  N   UNL     1     -18.075 -12.856  15.701  0.00  0.00    -0.187 NA
BRANCH  11  12
ATOM     12  N   UNL     1     -17.585 -13.249  14.489  0.00  0.00    -0.203 N 
ATOM     13  C   UNL     1     -16.772 -12.380  13.767  0.00  0.00    +0.263 C 
ATOM     14  O   UNL     1     -16.430 -11.263  14.133  0.00  0.00    -0.268 OA
ATOM     15  H   UNL     1     -17.804 -14.138  14.130  0.00  0.00    +0.000 HD
BRANCH  13  16
ATOM     16  C   UNL     1     -16.264 -12.905  12.467  0.00  0.00    +0.038 A 
ATOM     17  C   UNL     1     -15.742 -12.072  11.469  0.00  0.00    -0.049 A 
ATOM     18  C   UNL     1     -15.292 -12.617  10.262  0.00  0.00    -0.047 A 
ATOM     19  C   UNL     1     -15.355 -13.996  10.056  0.00  0.00    +0.018 A 
ATOM     20  C   UNL     1     -15.844 -14.837  11.052  0.00  0.00    -0.047 A 
ATOM     21  C   UNL     1     -16.294 -14.293  12.258  0.00  0.00    -0.049 A 
ATOM     22 BR   UNL     1     -14.763 -14.728   8.416  0.00  0.00    -0.050 Br
ENDBRANCH  13  16
ENDBRANCH  11  12
ENDBRANCH   9  10
BRANCH   7  23
ATOM     23  C   UNL     1     -19.769 -10.838  20.401  0.00  0.00    +0.048 C 
BRANCH  23  24
ATOM     24  C   UNL     1     -21.161 -11.333  20.689  0.00  0.00    -0.025 A 
ATOM     25  C   UNL     1     -21.839 -12.140  19.771  0.00  0.00    -0.039 A 
ATOM     26  C   UNL     1     -23.147 -12.507  20.043  0.00  0.00    +0.028 A 
ATOM     27  N   UNL     1     -23.810 -12.151  21.161  0.00  0.00    -0.263 NA
ATOM     28  C   UNL     1     -23.134 -11.393  22.050  0.00  0.00    +0.028 A 
ATOM     29  C   UNL     1     -21.827 -10.969  21.865  0.00  0.00    -0.039 A 
ENDBRANCH  23  24
ENDBRANCH   7  23
TORSDOF 5
ENDMDL
MODEL 3
REMARK VINA RESULT:    -7.503      1.552      2.185
REMARK INTER + INTRA:         -10.581
REMARK INTER:                  -9.720
REMARK INTRA:                  -0.862
REMARK UNBOUND:                -0.885
REMARK  Name = 8b.sdf
REMARK  5 active torsions:
REMARK  status: ('A' for Active; 'I' for Inactive)
REMARK    1  A    between atoms: N_7  and  C_12
REMARK    2  A    between atoms: C_9  and  C_10
REMARK    3  A    between atoms: N_11  and  N_19
REMARK    4  A    between atoms: C_12  and  C_13
REMARK    5  A    between atoms: C_20  and  C_22
REMARK                            x       y       z     vdW  Elec       q    Type
REMARK                         _______ _______ _______ _____ _____    ______ ____
ROOT
ATOM      1  C   UNL     1     -17.688 -14.068  21.146  0.00  0.00    -0.061 A 
ATOM      2  C   UNL     1     -18.145 -13.144  22.079  0.00  0.00    -0.060 A 
ATOM      3  C   UNL     1     -18.444 -11.829  21.705  0.00  0.00    -0.038 A 
ATOM      4  C   UNL     1     -18.272 -11.460  20.359  0.00  0.00    +0.050 A 
ATOM      5  C   UNL     1     -17.867 -12.391  19.393  0.00  0.00    +0.009 A 
ATOM      6  C   UNL     1     -17.560 -13.708  19.803  0.00  0.00    -0.052 A 
ATOM      7  N   UNL     1     -18.416 -10.246  19.711  0.00  0.00    -0.342 N 
ATOM      8  C   UNL     1     -18.197 -10.412  18.365  0.00  0.00    +0.015 A 
ATOM      9  C   UNL     1     -17.874 -11.732  18.125  0.00  0.00    +0.020 A 
ENDROOT
BRANCH   9  10
ATOM     10  C   UNL     1     -17.595 -12.318  16.830  0.00  0.00    +0.055 C 
ATOM     11  N   UNL     1     -16.440 -12.131  16.276  0.00  0.00    -0.187 NA
BRANCH  11  12
ATOM     12  N   UNL     1     -16.265 -12.704  15.049  0.00  0.00    -0.203 N 
ATOM     13  C   UNL     1     -15.790 -11.930  13.995  0.00  0.00    +0.263 C 
ATOM     14  O   UNL     1     -15.489 -10.746  14.067  0.00  0.00    -0.268 OA
ATOM     15  H   UNL     1     -16.472 -13.657  14.912  0.00  0.00    +0.000 HD
BRANCH  13  16
ATOM     16  C   UNL     1     -15.607 -12.648  12.700  0.00  0.00    +0.038 A 
ATOM     17  C   UNL     1     -15.610 -14.046  12.606  0.00  0.00    -0.049 A 
ATOM     18  C   UNL     1     -15.420 -14.668  11.367  0.00  0.00    -0.047 A 
ATOM     19  C   UNL     1     -15.236 -13.892  10.222  0.00  0.00    +0.018 A 
ATOM     20  C   UNL     1     -15.260 -12.502  10.298  0.00  0.00    -0.047 A 
ATOM     21  C   UNL     1     -15.450 -11.881  11.536  0.00  0.00    -0.049 A 
ATOM     22 BR   UNL     1     -14.961 -14.736   8.552  0.00  0.00    -0.050 Br
ENDBRANCH  13  16
ENDBRANCH  11  12
ENDBRANCH   9  10
BRANCH   7  23
ATOM     23  C   UNL     1     -18.630  -8.941  20.334  0.00  0.00    +0.048 C 
BRANCH  23  24
ATOM     24  C   UNL     1     -19.864  -8.256  19.808  0.00  0.00    -0.025 A 
ATOM     25  C   UNL     1     -19.772  -7.035  19.135  0.00  0.00    -0.039 A 
ATOM     26  C   UNL     1     -20.940  -6.403  18.737  0.00  0.00    +0.028 A 
ATOM     27  N   UNL     1     -22.174  -6.907  18.939  0.00  0.00    -0.263 NA
ATOM     28  C   UNL     1     -22.244  -8.100  19.567  0.00  0.00    +0.028 A 
ATOM     29  C   UNL     1     -21.135  -8.805  20.010  0.00  0.00    -0.039 A 
ENDBRANCH  23  24
ENDBRANCH   7  23
TORSDOF 5
ENDMDL
