MODEL 1
REMARK VINA RESULT:    -9.044      0.000      0.000
REMARK INTER + INTRA:         -12.487
REMARK INTER:                 -11.687
REMARK INTRA:                  -0.800
REMARK UNBOUND:                -0.800
REMARK  Name = 8c.sdf
REMARK  5 active torsions:
REMARK  status: ('A' for Active; 'I' for Inactive)
REMARK    1  A    between atoms: N_7  and  C_12
REMARK    2  A    between atoms: C_9  and  C_10
REMARK    3  A    between atoms: N_11  and  N_20
REMARK    4  A    between atoms: C_12  and  C_13
REMARK    5  A    between atoms: C_21  and  C_23
REMARK                            x       y       z     vdW  Elec       q    Type
REMARK                         _______ _______ _______ _____ _____    ______ ____
ROOT
ATOM      1  C   UNL     1     -16.340 -14.744  21.017  0.00  0.00    -0.061 A 
ATOM      2  C   UNL     1     -17.120 -14.146  22.000  0.00  0.00    -0.060 A 
ATOM      3  C   UNL     1     -18.035 -13.139  21.677  0.00  0.00    -0.038 A 
ATOM      4  C   UNL     1     -18.158 -12.753  20.332  0.00  0.00    +0.050 A 
ATOM      5  C   UNL     1     -17.416 -13.372  19.319  0.00  0.00    +0.009 A 
ATOM      6  C   UNL     1     -16.483 -14.372  19.678  0.00  0.00    -0.052 A 
ATOM      7  N   UNL     1     -18.930 -11.781  19.725  0.00  0.00    -0.342 N 
ATOM      8  C   UNL     1     -18.747 -11.822  18.365  0.00  0.00    +0.015 A 
ATOM      9  C   UNL     1     -17.820 -12.804  18.071  0.00  0.00    +0.020 A 
ENDROOT
BRANCH   9  10
ATOM     10  C   UNL     1     -17.364 -13.176  16.749  0.00  0.00    +0.055 C 
ATOM     11  N   UNL     1     -18.054 -12.834  15.709  0.00  0.00    -0.187 NA
BRANCH  11  12
ATOM     12  N   UNL     1     -17.553 -13.235  14.503  0.00  0.00    -0.203 N 
ATOM     13  C   UNL     1     -16.791 -12.348  13.752  0.00  0.00    +0.263 C 
ATOM     14  O   UNL     1     -16.499 -11.204  14.088  0.00  0.00    -0.268 OA
ATOM     15  H   UNL     1     -17.730 -14.144  14.168  0.00  0.00    +0.000 HD
BRANCH  13  16
ATOM     16  C   UNL     1     -16.273 -12.879  12.457  0.00  0.00    +0.038 A 
ATOM     17  C   UNL     1     -15.747 -12.047  11.457  0.00  0.00    -0.049 A 
ATOM     18  C   UNL     1     -15.277 -12.597  10.260  0.00  0.00    -0.047 A 
ATOM     19  C   UNL     1     -15.324 -13.977  10.064  0.00  0.00    +0.018 A 
ATOM     20  C   UNL     1     -15.825 -14.816  11.058  0.00  0.00    -0.047 A 
ATOM     21  C   UNL     1     -16.294 -14.265  12.255  0.00  0.00    -0.049 A 
ATOM     22 BR   UNL     1     -14.694 -14.718   8.443  0.00  0.00    -0.050 Br
ENDBRANCH  13  16
ENDBRANCH  11  12
ENDBRANCH   9  10
BRANCH   7  23
ATOM     23  C   UNL     1     -19.748 -10.777  20.403  0.00  0.00    +0.048 C 
BRANCH  23  24
ATOM     24  C   UNL     1     -21.127 -11.301  20.721  0.00  0.00    -0.028 A 
ATOM     25  C   UNL     1     -21.818 -12.097  19.794  0.00  0.00    -0.055 A 
ATOM     26  C   UNL     1     -23.132 -12.499  20.044  0.00  0.00    -0.043 A 
ATOM     27  C   UNL     1     -23.758 -12.118  21.229  0.00  0.00    +0.041 A 
ATOM     28  C   UNL     1     -23.071 -11.369  22.180  0.00  0.00    -0.043 A 
ATOM     29  C   UNL     1     -21.758 -10.963  21.927  0.00  0.00    -0.055 A 
ATOM     30 CL   UNL     1     -25.398 -12.561  21.507  0.00  0.00    -0.084 Cl
ENDBRANCH  23  24
ENDBRANCH   7  23
TORSDOF 5
ENDMDL
MODEL 2
REMARK VINA RESULT:    -8.745      2.260      2.944
REMARK INTER + INTRA:         -12.102
REMARK INTER:                 -11.294
REMARK INTRA:                  -0.807
REMARK UNBOUND:                -0.800
REMARK  Name = 8c.sdf
REMARK  5 active torsions:
REMARK  status: ('A' for Active; 'I' for Inactive)
REMARK    1  A    between atoms: N_7  and  C_12
REMARK    2  A    between atoms: C_9  and  C_10
REMARK    3  A    between atoms: N_11  and  N_20
REMARK    4  A    between atoms: C_12  and  C_13
REMARK    5  A    between atoms: C_21  and  C_23
REMARK                            x       y       z     vdW  Elec       q    Type
REMARK                         _______ _______ _______ _____ _____    ______ ____
ROOT
ATOM      1  C   UNL     1     -16.264 -14.645  21.071  0.00  0.00    -0.061 A 
ATOM      2  C   UNL     1     -17.178 -14.194  22.017  0.00  0.00    -0.060 A 
ATOM      3  C   UNL     1     -18.232 -13.351  21.653  0.00  0.00    -0.038 A 
ATOM      4  C   UNL     1     -18.355 -12.977  20.304  0.00  0.00    +0.050 A 
ATOM      5  C   UNL     1     -17.473 -13.455  19.326  0.00  0.00    +0.009 A 
ATOM      6  C   UNL     1     -16.404 -14.289  19.728  0.00  0.00    -0.052 A 
ATOM      7  N   UNL     1     -19.248 -12.141  19.663  0.00  0.00    -0.342 N 
ATOM      8  C   UNL     1     -18.998 -12.139  18.314  0.00  0.00    +0.015 A 
ATOM      9  C   UNL     1     -17.908 -12.950  18.062  0.00  0.00    +0.020 A 
ENDROOT
BRANCH   9  10
ATOM     10  C   UNL     1     -17.336 -13.228  16.762  0.00  0.00    +0.055 C 
ATOM     11  N   UNL     1     -16.741 -12.286  16.105  0.00  0.00    -0.187 NA
BRANCH  11  12
ATOM     12  N   UNL     1     -16.239 -12.636  14.883  0.00  0.00    -0.203 N 
ATOM     13  C   UNL     1     -17.092 -12.705  13.789  0.00  0.00    +0.263 C 
ATOM     14  O   UNL     1     -18.294 -12.453  13.810  0.00  0.00    -0.268 OA
ATOM     15  H   UNL     1     -15.281 -12.839  14.779  0.00  0.00    +0.000 HD
BRANCH  13  16
ATOM     16  C   UNL     1     -16.453 -13.079  12.494  0.00  0.00    +0.038 A 
ATOM     17  C   UNL     1     -15.974 -12.123  11.585  0.00  0.00    -0.049 A 
ATOM     18  C   UNL     1     -15.385 -12.529  10.382  0.00  0.00    -0.047 A 
ATOM     19  C   UNL     1     -15.267 -13.888  10.091  0.00  0.00    +0.018 A 
ATOM     20  C   UNL     1     -15.719 -14.847  10.995  0.00  0.00    -0.047 A 
ATOM     21  C   UNL     1     -16.307 -14.440  12.198  0.00  0.00    -0.049 A 
ATOM     22 BR   UNL     1     -14.477 -14.433   8.462  0.00  0.00    -0.050 Br
ENDBRANCH  13  16
ENDBRANCH  11  12
ENDBRANCH   9  10
BRANCH   7  23
ATOM     23  C   UNL     1     -20.253 -11.294  20.304  0.00  0.00    +0.048 C 
BRANCH  23  24
ATOM     24  C   UNL     1     -19.984  -9.829  20.062  0.00  0.00    -0.028 A 
ATOM     25  C   UNL     1     -18.928  -9.179  20.719  0.00  0.00    -0.055 A 
ATOM     26  C   UNL     1     -18.740  -7.803  20.574  0.00  0.00    -0.043 A 
ATOM     27  C   UNL     1     -19.602  -7.070  19.761  0.00  0.00    +0.041 A 
ATOM     28  C   UNL     1     -20.626  -7.706  19.065  0.00  0.00    -0.043 A 
ATOM     29  C   UNL     1     -20.816  -9.082  19.213  0.00  0.00    -0.055 A 
ATOM     30 CL   UNL     1     -19.408  -5.365  19.633  0.00  0.00    -0.084 Cl
ENDBRANCH  23  24
ENDBRANCH   7  23
TORSDOF 5
ENDMDL
MODEL 3
REMARK VINA RESULT:    -7.313      2.713      3.347
REMARK INTER + INTRA:         -10.251
REMARK INTER:                  -9.355
REMARK INTRA:                  -0.896
REMARK UNBOUND:                -0.800
REMARK  Name = 8c.sdf
REMARK  5 active torsions:
REMARK  status: ('A' for Active; 'I' for Inactive)
REMARK    1  A    between atoms: N_7  and  C_12
REMARK    2  A    between atoms: C_9  and  C_10
REMARK    3  A    between atoms: N_11  and  N_20
REMARK    4  A    between atoms: C_12  and  C_13
REMARK    5  A    between atoms: C_21  and  C_23
REMARK                            x       y       z     vdW  Elec       q    Type
REMARK                         _______ _______ _______ _____ _____    ______ ____
ROOT
ATOM      1  C   UNL     1     -18.472 -13.617  21.485  0.00  0.00    -0.061 A 
ATOM      2  C   UNL     1     -18.855 -12.637  22.394  0.00  0.00    -0.060 A 
ATOM      3  C   UNL     1     -18.909 -11.291  22.017  0.00  0.00    -0.038 A 
ATOM      4  C   UNL     1     -18.577 -10.952  20.695  0.00  0.00    +0.050 A 
ATOM      5  C   UNL     1     -18.232 -11.927  19.751  0.00  0.00    +0.009 A 
ATOM      6  C   UNL     1     -18.165 -13.277  20.166  0.00  0.00    -0.052 A 
ATOM      7  N   UNL     1     -18.500  -9.730  20.054  0.00  0.00    -0.342 N 
ATOM      8  C   UNL     1     -18.189  -9.917  18.731  0.00  0.00    +0.015 A 
ATOM      9  C   UNL     1     -18.024 -11.269  18.499  0.00  0.00    +0.020 A 
ENDROOT
BRANCH   9  10
ATOM     10  C   UNL     1     -17.706 -11.883  17.228  0.00  0.00    +0.055 C 
ATOM     11  N   UNL     1     -16.540 -11.702  16.697  0.00  0.00    -0.187 NA
BRANCH  11  12
ATOM     12  N   UNL     1     -16.331 -12.311  15.492  0.00  0.00    -0.203 N 
ATOM     13  C   UNL     1     -16.342 -11.548  14.331  0.00  0.00    +0.263 C 
ATOM     14  O   UNL     1     -16.508 -10.332  14.284  0.00  0.00    -0.268 OA
ATOM     15  H   UNL     1     -16.176 -13.282  15.446  0.00  0.00    +0.000 HD
BRANCH  13  16
ATOM     16  C   UNL     1     -16.089 -12.295  13.065  0.00  0.00    +0.038 A 
ATOM     17  C   UNL     1     -16.460 -13.637  12.894  0.00  0.00    -0.049 A 
ATOM     18  C   UNL     1     -16.195 -14.291  11.686  0.00  0.00    -0.047 A 
ATOM     19  C   UNL     1     -15.568 -13.605  10.647  0.00  0.00    +0.018 A 
ATOM     20  C   UNL     1     -15.214 -12.265  10.797  0.00  0.00    -0.047 A 
ATOM     21  C   UNL     1     -15.480 -11.611  12.005  0.00  0.00    -0.049 A 
ATOM     22 BR   UNL     1     -15.206 -14.493   9.018  0.00  0.00    -0.050 Br
ENDBRANCH  13  16
ENDBRANCH  11  12
ENDBRANCH   9  10
BRANCH   7  23
ATOM     23  C   UNL     1     -18.622  -8.415  20.681  0.00  0.00    +0.048 C 
BRANCH  23  24
ATOM     24  C   UNL     1     -19.831  -7.666  20.177  0.00  0.00    -0.028 A 
ATOM     25  C   UNL     1     -19.703  -6.364  19.668  0.00  0.00    -0.055 A 
ATOM     26  C   UNL     1     -20.833  -5.634  19.294  0.00  0.00    -0.043 A 
ATOM     27  C   UNL     1     -22.098  -6.205  19.417  0.00  0.00    +0.041 A 
ATOM     28  C   UNL     1     -22.239  -7.512  19.875  0.00  0.00    -0.043 A 
ATOM     29  C   UNL     1     -21.109  -8.241  20.253  0.00  0.00    -0.055 A 
ATOM     30 CL   UNL     1     -23.493  -5.281  19.016  0.00  0.00    -0.084 Cl
ENDBRANCH  23  24
ENDBRANCH   7  23
TORSDOF 5
ENDMDL
