MODEL 1
REMARK VINA RESULT:    -5.218      0.000      0.000
REMARK INTER + INTRA:          -5.218
REMARK INTER:                  -5.218
REMARK INTRA:                   0.000
REMARK UNBOUND:                 0.000
REMARK  Name = 0.sdf
REMARK  0 active torsions:
REMARK  status: ('A' for Active; 'I' for Inactive)
REMARK                            x       y       z     vdW  Elec       q    Type
REMARK                         _______ _______ _______ _____ _____    ______ ____
ROOT
ATOM      1  C   UNL     1     -46.872  -1.672  34.850  0.00  0.00    -0.061 A 
ATOM      2  C   UNL     1     -47.171  -3.033  34.858  0.00  0.00    -0.060 A 
ATOM      3  C   UNL     1     -48.470  -3.485  35.116  0.00  0.00    -0.038 A 
ATOM      4  C   UNL     1     -49.452  -2.521  35.371  0.00  0.00    +0.046 A 
ATOM      5  C   UNL     1     -49.181  -1.152  35.372  0.00  0.00    -0.000 A 
ATOM      6  C   UNL     1     -47.868  -0.721  35.103  0.00  0.00    -0.053 A 
ATOM      7  N   UNL     1     -50.791  -2.668  35.657  0.00  0.00    -0.361 N 
ATOM      8  C   UNL     1     -51.373  -1.443  35.847  0.00  0.00    +0.003 A 
ATOM      9  C   UNL     1     -50.401  -0.485  35.672  0.00  0.00    -0.037 A 
ATOM     10  H   UNL     1     -51.262  -3.530  35.716  0.00  0.00    +0.000 HD
ENDROOT
TORSDOF 0
ENDMDL
MODEL 2
REMARK VINA RESULT:    -5.207      1.883      3.936
REMARK INTER + INTRA:          -5.207
REMARK INTER:                  -5.207
REMARK INTRA:                   0.000
REMARK UNBOUND:                 0.000
REMARK  Name = 0.sdf
REMARK  0 active torsions:
REMARK  status: ('A' for Active; 'I' for Inactive)
REMARK                            x       y       z     vdW  Elec       q    Type
REMARK                         _______ _______ _______ _____ _____    ______ ____
ROOT
ATOM      1  C   UNL     1     -49.864  -2.043  35.541  0.00  0.00    -0.061 A 
ATOM      2  C   UNL     1     -49.294  -0.772  35.504  0.00  0.00    -0.060 A 
ATOM      3  C   UNL     1     -47.966  -0.588  35.103  0.00  0.00    -0.038 A 
ATOM      4  C   UNL     1     -47.233  -1.727  34.748  0.00  0.00    +0.046 A 
ATOM      5  C   UNL     1     -47.777  -3.011  34.779  0.00  0.00    -0.000 A 
ATOM      6  C   UNL     1     -49.118  -3.171  35.180  0.00  0.00    -0.053 A 
ATOM      7  N   UNL     1     -45.928  -1.850  34.327  0.00  0.00    -0.361 N 
ATOM      8  C   UNL     1     -45.626  -3.167  34.099  0.00  0.00    +0.003 A 
ATOM      9  C   UNL     1     -46.753  -3.909  34.366  0.00  0.00    -0.037 A 
ATOM     10  H   UNL     1     -45.303  -1.100  34.207  0.00  0.00    +0.000 HD
ENDROOT
TORSDOF 0
ENDMDL
MODEL 3
REMARK VINA RESULT:    -5.099      1.087      2.870
REMARK INTER + INTRA:          -5.099
REMARK INTER:                  -5.099
REMARK INTRA:                   0.000
REMARK UNBOUND:                 0.000
REMARK  Name = 0.sdf
REMARK  0 active torsions:
REMARK  status: ('A' for Active; 'I' for Inactive)
REMARK                            x       y       z     vdW  Elec       q    Type
REMARK                         _______ _______ _______ _____ _____    ______ ____
ROOT
ATOM      1  C   UNL     1     -47.928  -0.702  35.206  0.00  0.00    -0.061 A 
ATOM      2  C   UNL     1     -49.275  -0.665  35.561  0.00  0.00    -0.060 A 
ATOM      3  C   UNL     1     -50.042  -1.834  35.609  0.00  0.00    -0.038 A 
ATOM      4  C   UNL     1     -49.406  -3.038  35.281  0.00  0.00    +0.046 A 
ATOM      5  C   UNL     1     -48.060  -3.105  34.921  0.00  0.00    -0.000 A 
ATOM      6  C   UNL     1     -47.308  -1.915  34.886  0.00  0.00    -0.053 A 
ATOM      7  N   UNL     1     -49.901  -4.322  35.237  0.00  0.00    -0.361 N 
ATOM      8  C   UNL     1     -48.919  -5.196  34.852  0.00  0.00    +0.003 A 
ATOM      9  C   UNL     1     -47.766  -4.471  34.654  0.00  0.00    -0.037 A 
ATOM     10  H   UNL     1     -50.828  -4.575  35.451  0.00  0.00    +0.000 HD
ENDROOT
TORSDOF 0
ENDMDL
