MODEL 1
REMARK VINA RESULT:    -8.068      0.000      0.000
REMARK INTER + INTRA:         -10.380
REMARK INTER:                  -9.954
REMARK INTRA:                  -0.426
REMARK UNBOUND:                -0.426
REMARK  Name = 10.sdf
REMARK  5 active torsions:
REMARK  status: ('A' for Active; 'I' for Inactive)
REMARK    1  A    between atoms: C_9  and  C_10
REMARK    2  A    between atoms: C_11  and  C_12
REMARK    3  A    between atoms: C_12  and  C_13
REMARK    4  A    between atoms: C_17  and  O_20
REMARK    5  A    between atoms: O_20  and  C_21
REMARK                            x       y       z     vdW  Elec       q    Type
REMARK                         _______ _______ _______ _____ _____    ______ ____
ROOT
ATOM      1  C   UNL     1     -46.505  -4.397  34.143  0.00  0.00    -0.049 C 
ATOM      2  C   UNL     1     -45.440  -4.703  33.379  0.00  0.00    -0.014 C 
ENDROOT
BRANCH   1  11
ATOM      3  C   UNL     1     -50.493  -2.355  35.613  0.00  0.00    -0.061 A 
ATOM      4  C   UNL     1     -50.332  -0.981  35.775  0.00  0.00    -0.060 A 
ATOM      5  C   UNL     1     -49.103  -0.375  35.518  0.00  0.00    -0.038 A 
ATOM      6  C   UNL     1     -48.047  -1.191  35.096  0.00  0.00    +0.047 A 
ATOM      7  C   UNL     1     -48.168  -2.573  34.918  0.00  0.00    +0.007 A 
ATOM      8  C   UNL     1     -49.425  -3.161  35.184  0.00  0.00    -0.052 A 
ATOM      9  N   UNL     1     -46.755  -0.849  34.785  0.00  0.00    -0.360 N 
ATOM     10  C   UNL     1     -46.049  -1.958  34.413  0.00  0.00    +0.010 A 
ATOM     11  C   UNL     1     -46.887  -3.053  34.478  0.00  0.00    +0.000 A 
ATOM     12  H   UNL     1     -46.389   0.064  34.825  0.00  0.00    +0.000 HD
ENDBRANCH   1  11
BRANCH   2  13
ATOM     13  C   UNL     1     -45.073  -6.094  32.995  0.00  0.00    +0.186 C 
ATOM     14  O   UNL     1     -45.553  -7.077  33.543  0.00  0.00    -0.287 OA
BRANCH  13  15
ATOM     15  C   UNL     1     -44.032  -6.229  31.932  0.00  0.00    +0.022 A 
ATOM     16  C   UNL     1     -42.685  -6.332  32.295  0.00  0.00    -0.047 A 
ATOM     17  C   UNL     1     -41.690  -6.429  31.309  0.00  0.00    -0.019 A 
ATOM     18  C   UNL     1     -42.037  -6.436  29.958  0.00  0.00    +0.120 A 
ATOM     19  C   UNL     1     -43.385  -6.364  29.599  0.00  0.00    -0.019 A 
ATOM     20  C   UNL     1     -44.380  -6.268  30.576  0.00  0.00    -0.047 A 
BRANCH  18  21
ATOM     21  O   UNL     1     -41.176  -6.507  28.899  0.00  0.00    -0.495 OA
ATOM     22  C   UNL     1     -40.801  -7.805  28.455  0.00  0.00    +0.079 C 
ENDBRANCH  18  21
ENDBRANCH  13  15
ENDBRANCH   2  13
TORSDOF 4
ENDMDL
MODEL 2
REMARK VINA RESULT:    -7.882      1.407      2.107
REMARK INTER + INTRA:         -10.150
REMARK INTER:                  -9.743
REMARK INTRA:                  -0.407
REMARK UNBOUND:                -0.426
REMARK  Name = 10.sdf
REMARK  5 active torsions:
REMARK  status: ('A' for Active; 'I' for Inactive)
REMARK    1  A    between atoms: C_9  and  C_10
REMARK    2  A    between atoms: C_11  and  C_12
REMARK    3  A    between atoms: C_12  and  C_13
REMARK    4  A    between atoms: C_17  and  O_20
REMARK    5  A    between atoms: O_20  and  C_21
REMARK                            x       y       z     vdW  Elec       q    Type
REMARK                         _______ _______ _______ _____ _____    ______ ____
ROOT
ATOM      1  C   UNL     1     -47.495  -3.689  34.609  0.00  0.00    -0.049 C 
ATOM      2  C   UNL     1     -48.002  -4.431  33.608  0.00  0.00    -0.014 C 
ENDROOT
BRANCH   1  11
ATOM      3  C   UNL     1     -51.621  -1.785  35.871  0.00  0.00    -0.061 A 
ATOM      4  C   UNL     1     -51.515  -0.408  36.040  0.00  0.00    -0.060 A 
ATOM      5  C   UNL     1     -50.297   0.241  35.845  0.00  0.00    -0.038 A 
ATOM      6  C   UNL     1     -49.193  -0.539  35.479  0.00  0.00    +0.047 A 
ATOM      7  C   UNL     1     -49.258  -1.923  35.296  0.00  0.00    +0.007 A 
ATOM      8  C   UNL     1     -50.505  -2.554  35.498  0.00  0.00    -0.052 A 
ATOM      9  N   UNL     1     -47.899  -0.153  35.235  0.00  0.00    -0.360 N 
ATOM     10  C   UNL     1     -47.137  -1.237  34.900  0.00  0.00    +0.010 A 
ATOM     11  C   UNL     1     -47.940  -2.360  34.922  0.00  0.00    +0.000 A 
ATOM     12  H   UNL     1     -47.567   0.773  35.292  0.00  0.00    +0.000 HD
ENDBRANCH   1  11
BRANCH   2  13
ATOM     13  C   UNL     1     -47.572  -5.825  33.314  0.00  0.00    +0.186 C 
ATOM     14  O   UNL     1     -48.176  -6.804  33.734  0.00  0.00    -0.287 OA
BRANCH  13  15
ATOM     15  C   UNL     1     -46.317  -5.972  32.517  0.00  0.00    +0.022 A 
ATOM     16  C   UNL     1     -45.633  -4.829  32.091  0.00  0.00    -0.047 A 
ATOM     17  C   UNL     1     -44.470  -4.945  31.315  0.00  0.00    -0.019 A 
ATOM     18  C   UNL     1     -43.977  -6.205  30.971  0.00  0.00    +0.120 A 
ATOM     19  C   UNL     1     -44.644  -7.345  31.424  0.00  0.00    -0.019 A 
ATOM     20  C   UNL     1     -45.802  -7.235  32.197  0.00  0.00    -0.047 A 
BRANCH  18  21
ATOM     21  O   UNL     1     -42.870  -6.464  30.211  0.00  0.00    -0.495 OA
ATOM     22  C   UNL     1     -41.699  -6.888  30.896  0.00  0.00    +0.079 C 
ENDBRANCH  18  21
ENDBRANCH  13  15
ENDBRANCH   2  13
TORSDOF 4
ENDMDL
MODEL 3
REMARK VINA RESULT:    -7.846      2.512      3.823
REMARK INTER + INTRA:         -10.106
REMARK INTER:                  -9.455
REMARK INTRA:                  -0.651
REMARK UNBOUND:                -0.426
REMARK  Name = 10.sdf
REMARK  5 active torsions:
REMARK  status: ('A' for Active; 'I' for Inactive)
REMARK    1  A    between atoms: C_9  and  C_10
REMARK    2  A    between atoms: C_11  and  C_12
REMARK    3  A    between atoms: C_12  and  C_13
REMARK    4  A    between atoms: C_17  and  O_20
REMARK    5  A    between atoms: O_20  and  C_21
REMARK                            x       y       z     vdW  Elec       q    Type
REMARK                         _______ _______ _______ _____ _____    ______ ____
ROOT
ATOM      1  C   UNL     1     -46.474  -4.177  34.070  0.00  0.00    -0.049 C 
ATOM      2  C   UNL     1     -45.621  -4.368  33.047  0.00  0.00    -0.014 C 
ENDROOT
BRANCH   1  11
ATOM      3  C   UNL     1     -50.618  -2.438  35.498  0.00  0.00    -0.061 A 
ATOM      4  C   UNL     1     -50.529  -1.079  35.784  0.00  0.00    -0.060 A 
ATOM      5  C   UNL     1     -49.318  -0.401  35.642  0.00  0.00    -0.038 A 
ATOM      6  C   UNL     1     -48.206  -1.133  35.208  0.00  0.00    +0.047 A 
ATOM      7  C   UNL     1     -48.255  -2.498  34.909  0.00  0.00    +0.007 A 
ATOM      8  C   UNL     1     -49.494  -3.159  35.059  0.00  0.00    -0.052 A 
ATOM      9  N   UNL     1     -46.918  -0.712  34.995  0.00  0.00    -0.360 N 
ATOM     10  C   UNL     1     -46.144  -1.754  34.568  0.00  0.00    +0.010 A 
ATOM     11  C   UNL     1     -46.934  -2.885  34.497  0.00  0.00    +0.000 A 
ATOM     12  H   UNL     1     -46.597   0.209  35.130  0.00  0.00    +0.000 HD
ENDBRANCH   1  11
BRANCH   2  13
ATOM     13  C   UNL     1     -45.182  -5.711  32.578  0.00  0.00    +0.186 C 
ATOM     14  O   UNL     1     -44.003  -6.003  32.426  0.00  0.00    -0.287 OA
BRANCH  13  15
ATOM     15  C   UNL     1     -46.269  -6.678  32.244  0.00  0.00    +0.022 A 
ATOM     16  C   UNL     1     -46.365  -7.880  32.954  0.00  0.00    -0.047 A 
ATOM     17  C   UNL     1     -47.361  -8.816  32.634  0.00  0.00    -0.019 A 
ATOM     18  C   UNL     1     -48.274  -8.551  31.612  0.00  0.00    +0.120 A 
ATOM     19  C   UNL     1     -48.196  -7.337  30.926  0.00  0.00    -0.019 A 
ATOM     20  C   UNL     1     -47.206  -6.401  31.240  0.00  0.00    -0.047 A 
BRANCH  18  21
ATOM     21  O   UNL     1     -49.278  -9.375  31.186  0.00  0.00    -0.495 OA
ATOM     22  C   UNL     1     -48.924 -10.712  30.860  0.00  0.00    +0.079 C 
ENDBRANCH  18  21
ENDBRANCH  13  15
ENDBRANCH   2  13
TORSDOF 4
ENDMDL
