MODEL 1
REMARK VINA RESULT:    -7.555      0.000      0.000
REMARK INTER + INTRA:         -10.045
REMARK INTER:                  -9.763
REMARK INTRA:                  -0.282
REMARK UNBOUND:                -0.282
REMARK  Name = 15.sdf
REMARK  6 active torsions:
REMARK  status: ('A' for Active; 'I' for Inactive)
REMARK    1  A    between atoms: C_9  and  C_10
REMARK    2  A    between atoms: C_10  and  O_11
REMARK    3  A    between atoms: O_11  and  C_12
REMARK    4  A    between atoms: C_12  and  C_13
REMARK    5  A    between atoms: C_13  and  C_15
REMARK    6  A    between atoms: C_16  and  C_17
REMARK                            x       y       z     vdW  Elec       q    Type
REMARK                         _______ _______ _______ _____ _____    ______ ____
ROOT
ATOM      1  C   UNL     1     -49.957  -2.206  35.496  0.00  0.00    -0.061 A 
ATOM      2  C   UNL     1     -49.418  -0.923  35.564  0.00  0.00    -0.060 A 
ATOM      3  C   UNL     1     -48.085  -0.684  35.220  0.00  0.00    -0.038 A 
ATOM      4  C   UNL     1     -47.315  -1.777  34.807  0.00  0.00    +0.047 A 
ATOM      5  C   UNL     1     -47.824  -3.074  34.730  0.00  0.00    +0.006 A 
ATOM      6  C   UNL     1     -49.173  -3.288  35.080  0.00  0.00    -0.052 A 
ATOM      7  N   UNL     1     -45.997  -1.837  34.418  0.00  0.00    -0.360 N 
ATOM      8  C   UNL     1     -45.657  -3.121  34.097  0.00  0.00    +0.009 A 
ATOM      9  C   UNL     1     -46.764  -3.929  34.285  0.00  0.00    +0.015 A 
ATOM     10  H   UNL     1     -45.387  -1.066  34.377  0.00  0.00    +0.000 HD
ENDROOT
BRANCH   9  11
ATOM     11  C   UNL     1     -46.835  -5.404  34.063  0.00  0.00    +0.120 C 
BRANCH  11  12
ATOM     12  O   UNL     1     -45.537  -5.997  33.886  0.00  0.00    -0.456 OA
BRANCH  12  13
ATOM     13  C   UNL     1     -45.349  -6.634  32.703  0.00  0.00    +0.339 C 
ATOM     14  O   UNL     1     -45.875  -7.690  32.373  0.00  0.00    -0.245 OA
BRANCH  13  15
ATOM     15  C   UNL     1     -44.366  -5.901  31.824  0.00  0.00    +0.052 C 
ATOM     16  C   UNL     1     -44.752  -4.864  31.063  0.00  0.00    -0.085 C 
BRANCH  15  17
ATOM     17  C   UNL     1     -42.960  -6.262  31.951  0.00  0.00    -0.053 C 
ATOM     18  C   UNL     1     -41.995  -6.276  31.017  0.00  0.00    -0.086 C 
ATOM     19  C   UNL     1     -42.083  -5.955  29.561  0.00  0.00    -0.047 C 
ENDBRANCH  15  17
ENDBRANCH  13  15
ENDBRANCH  12  13
ENDBRANCH  11  12
ENDBRANCH   9  11
TORSDOF 5
ENDMDL
MODEL 2
REMARK VINA RESULT:    -7.274      1.550      2.294
REMARK INTER + INTRA:          -9.683
REMARK INTER:                  -9.327
REMARK INTRA:                  -0.355
REMARK UNBOUND:                -0.282
REMARK  Name = 15.sdf
REMARK  6 active torsions:
REMARK  status: ('A' for Active; 'I' for Inactive)
REMARK    1  A    between atoms: C_9  and  C_10
REMARK    2  A    between atoms: C_10  and  O_11
REMARK    3  A    between atoms: O_11  and  C_12
REMARK    4  A    between atoms: C_12  and  C_13
REMARK    5  A    between atoms: C_13  and  C_15
REMARK    6  A    between atoms: C_16  and  C_17
REMARK                            x       y       z     vdW  Elec       q    Type
REMARK                         _______ _______ _______ _____ _____    ______ ____
ROOT
ATOM      1  C   UNL     1     -51.504  -1.891  35.640  0.00  0.00    -0.061 A 
ATOM      2  C   UNL     1     -51.377  -0.536  35.935  0.00  0.00    -0.060 A 
ATOM      3  C   UNL     1     -50.139   0.107  35.843  0.00  0.00    -0.038 A 
ATOM      4  C   UNL     1     -49.037  -0.659  35.446  0.00  0.00    +0.047 A 
ATOM      5  C   UNL     1     -49.131  -2.018  35.145  0.00  0.00    +0.006 A 
ATOM      6  C   UNL     1     -50.392  -2.642  35.244  0.00  0.00    -0.052 A 
ATOM      7  N   UNL     1     -47.722  -0.298  35.275  0.00  0.00    -0.360 N 
ATOM      8  C   UNL     1     -46.984  -1.377  34.876  0.00  0.00    +0.009 A 
ATOM      9  C   UNL     1     -47.821  -2.474  34.791  0.00  0.00    +0.015 A 
ATOM     10  H   UNL     1     -47.363   0.608  35.419  0.00  0.00    +0.000 HD
ENDROOT
BRANCH   9  11
ATOM     11  C   UNL     1     -47.429  -3.862  34.401  0.00  0.00    +0.120 C 
BRANCH  11  12
ATOM     12  O   UNL     1     -46.014  -4.089  34.521  0.00  0.00    -0.456 OA
BRANCH  12  13
ATOM     13  C   UNL     1     -45.329  -4.103  33.350  0.00  0.00    +0.339 C 
ATOM     14  O   UNL     1     -44.926  -3.114  32.751  0.00  0.00    -0.245 OA
BRANCH  13  15
ATOM     15  C   UNL     1     -45.140  -5.507  32.830  0.00  0.00    +0.052 C 
ATOM     16  C   UNL     1     -45.357  -6.575  33.615  0.00  0.00    -0.085 C 
BRANCH  15  17
ATOM     17  C   UNL     1     -44.868  -5.659  31.407  0.00  0.00    -0.053 C 
ATOM     18  C   UNL     1     -43.718  -5.971  30.786  0.00  0.00    -0.086 C 
ATOM     19  C   UNL     1     -42.368  -6.225  31.371  0.00  0.00    -0.047 C 
ENDBRANCH  15  17
ENDBRANCH  13  15
ENDBRANCH  12  13
ENDBRANCH  11  12
ENDBRANCH   9  11
TORSDOF 5
ENDMDL
MODEL 3
REMARK VINA RESULT:    -7.273      1.465      2.058
REMARK INTER + INTRA:          -9.680
REMARK INTER:                  -9.274
REMARK INTRA:                  -0.406
REMARK UNBOUND:                -0.282
REMARK  Name = 15.sdf
REMARK  6 active torsions:
REMARK  status: ('A' for Active; 'I' for Inactive)
REMARK    1  A    between atoms: C_9  and  C_10
REMARK    2  A    between atoms: C_10  and  O_11
REMARK    3  A    between atoms: O_11  and  C_12
REMARK    4  A    between atoms: C_12  and  C_13
REMARK    5  A    between atoms: C_13  and  C_15
REMARK    6  A    between atoms: C_16  and  C_17
REMARK                            x       y       z     vdW  Elec       q    Type
REMARK                         _______ _______ _______ _____ _____    ______ ____
ROOT
ATOM      1  C   UNL     1     -47.460  -1.084  35.160  0.00  0.00    -0.061 A 
ATOM      2  C   UNL     1     -48.753  -0.716  35.523  0.00  0.00    -0.060 A 
ATOM      3  C   UNL     1     -49.786  -1.658  35.565  0.00  0.00    -0.038 A 
ATOM      4  C   UNL     1     -49.472  -2.979  35.228  0.00  0.00    +0.047 A 
ATOM      5  C   UNL     1     -48.188  -3.380  34.858  0.00  0.00    +0.006 A 
ATOM      6  C   UNL     1     -47.164  -2.411  34.826  0.00  0.00    -0.052 A 
ATOM      7  N   UNL     1     -50.273  -4.096  35.180  0.00  0.00    -0.360 N 
ATOM      8  C   UNL     1     -49.542  -5.186  34.796  0.00  0.00    +0.009 A 
ATOM      9  C   UNL     1     -48.237  -4.784  34.575  0.00  0.00    +0.015 A 
ATOM     10  H   UNL     1     -51.234  -4.109  35.392  0.00  0.00    +0.000 HD
ENDROOT
BRANCH   9  11
ATOM     11  C   UNL     1     -47.104  -5.650  34.132  0.00  0.00    +0.120 C 
BRANCH  11  12
ATOM     12  O   UNL     1     -47.037  -5.780  32.702  0.00  0.00    -0.456 OA
BRANCH  12  13
ATOM     13  C   UNL     1     -46.016  -6.543  32.237  0.00  0.00    +0.339 C 
ATOM     14  O   UNL     1     -46.026  -7.764  32.145  0.00  0.00    -0.245 OA
BRANCH  13  15
ATOM     15  C   UNL     1     -44.816  -5.706  31.867  0.00  0.00    +0.052 C 
ATOM     16  C   UNL     1     -44.951  -4.423  31.493  0.00  0.00    -0.085 C 
BRANCH  15  17
ATOM     17  C   UNL     1     -43.501  -6.295  32.081  0.00  0.00    -0.053 C 
ATOM     18  C   UNL     1     -42.471  -6.415  31.228  0.00  0.00    -0.086 C 
ATOM     19  C   UNL     1     -42.377  -6.007  29.795  0.00  0.00    -0.047 C 
ENDBRANCH  15  17
ENDBRANCH  13  15
ENDBRANCH  12  13
ENDBRANCH  11  12
ENDBRANCH   9  11
TORSDOF 5
ENDMDL
