MODEL 1
REMARK VINA RESULT:    -8.464      0.000      0.000
REMARK INTER + INTRA:         -12.828
REMARK INTER:                 -10.938
REMARK INTRA:                  -1.890
REMARK UNBOUND:                -1.890
REMARK  Name = 15d.sdf
REMARK  5 active torsions:
REMARK  status: ('A' for Active; 'I' for Inactive)
REMARK    1  A    between atoms: C_9  and  C_10
REMARK    2  A    between atoms: C_10  and  O_11
REMARK    3  A    between atoms: O_11  and  C_12
REMARK    4  A    between atoms: C_12  and  C_13
REMARK    5  A    between atoms: C_15  and  C_16
REMARK                            x       y       z     vdW  Elec       q    Type
REMARK                         _______ _______ _______ _____ _____    ______ ____
ROOT
ATOM      1  C   UNL     1     -50.054  -0.877  35.680  0.00  0.00    -0.061 A 
ATOM      2  C   UNL     1     -48.736  -0.489  35.480  0.00  0.00    -0.060 A 
ATOM      3  C   UNL     1     -47.771  -1.413  35.064  0.00  0.00    -0.037 A 
ATOM      4  C   UNL     1     -48.162  -2.749  34.858  0.00  0.00    +0.057 A 
ATOM      5  C   UNL     1     -49.491  -3.156  35.052  0.00  0.00    +0.007 A 
ATOM      6  C   UNL     1     -50.441  -2.203  35.466  0.00  0.00    -0.052 A 
ATOM      7  N   UNL     1     -47.444  -3.850  34.390  0.00  0.00    -0.283 N 
ATOM      8  C   UNL     1     -48.304  -4.940  34.376  0.00  0.00    +0.020 A 
ATOM      9  C   UNL     1     -49.573  -4.548  34.745  0.00  0.00    +0.015 A 
ATOM     10  C   UNL     1     -46.090  -3.875  33.969  0.00  0.00    +0.263 C 
ATOM     11  O   UNL     1     -45.325  -3.017  34.403  0.00  0.00    -0.267 OA
ENDROOT
BRANCH  10  12
ATOM     12  C   UNL     1     -45.558  -4.889  33.020  0.00  0.00    +0.040 A 
ATOM     13  C   UNL     1     -45.563  -6.248  33.367  0.00  0.00    -0.049 A 
ATOM     14  C   UNL     1     -45.009  -7.191  32.505  0.00  0.00    -0.061 A 
ATOM     15  C   UNL     1     -44.480  -6.786  31.281  0.00  0.00    -0.062 A 
ATOM     16  C   UNL     1     -44.529  -5.442  30.906  0.00  0.00    -0.061 A 
ATOM     17  C   UNL     1     -45.075  -4.491  31.770  0.00  0.00    -0.049 A 
ENDBRANCH  10  12
BRANCH   9  18
ATOM     18  C   UNL     1     -50.800  -5.408  34.778  0.00  0.00    +0.120 C 
BRANCH  18  19
ATOM     19  O   UNL     1     -51.629  -5.197  33.623  0.00  0.00    -0.456 OA
BRANCH  19  20
ATOM     20  C   UNL     1     -51.695  -6.223  32.745  0.00  0.00    +0.339 C 
ATOM     21  O   UNL     1     -52.616  -7.013  32.624  0.00  0.00    -0.245 OA
BRANCH  20  22
ATOM     22  C   UNL     1     -50.457  -6.296  31.918  0.00  0.00    +0.059 A 
ATOM     23  C   UNL     1     -49.712  -7.485  31.940  0.00  0.00    -0.048 A 
ATOM     24  C   UNL     1     -48.531  -7.593  31.203  0.00  0.00    -0.061 A 
ATOM     25  C   UNL     1     -48.090  -6.518  30.433  0.00  0.00    -0.062 A 
ATOM     26  C   UNL     1     -48.833  -5.339  30.391  0.00  0.00    -0.061 A 
ATOM     27  C   UNL     1     -50.014  -5.225  31.130  0.00  0.00    -0.048 A 
ENDBRANCH  20  22
ENDBRANCH  19  20
ENDBRANCH  18  19
ENDBRANCH   9  18
TORSDOF 5
ENDMDL
MODEL 2
REMARK VINA RESULT:    -8.185      2.209      5.213
REMARK INTER + INTRA:         -12.468
REMARK INTER:                 -10.730
REMARK INTRA:                  -1.738
REMARK UNBOUND:                -1.890
REMARK  Name = 15d.sdf
REMARK  5 active torsions:
REMARK  status: ('A' for Active; 'I' for Inactive)
REMARK    1  A    between atoms: C_9  and  C_10
REMARK    2  A    between atoms: C_10  and  O_11
REMARK    3  A    between atoms: O_11  and  C_12
REMARK    4  A    between atoms: C_12  and  C_13
REMARK    5  A    between atoms: C_15  and  C_16
REMARK                            x       y       z     vdW  Elec       q    Type
REMARK                         _______ _______ _______ _____ _____    ______ ____
ROOT
ATOM      1  C   UNL     1     -53.691  -6.131  30.457  0.00  0.00    -0.061 A 
ATOM      2  C   UNL     1     -52.767  -6.892  29.756  0.00  0.00    -0.060 A 
ATOM      3  C   UNL     1     -51.393  -6.717  29.955  0.00  0.00    -0.037 A 
ATOM      4  C   UNL     1     -50.965  -5.745  30.879  0.00  0.00    +0.057 A 
ATOM      5  C   UNL     1     -51.887  -4.969  31.598  0.00  0.00    +0.007 A 
ATOM      6  C   UNL     1     -53.263  -5.172  31.380  0.00  0.00    -0.052 A 
ATOM      7  N   UNL     1     -49.686  -5.404  31.320  0.00  0.00    -0.283 N 
ATOM      8  C   UNL     1     -49.818  -4.372  32.240  0.00  0.00    +0.020 A 
ATOM      9  C   UNL     1     -51.152  -4.100  32.459  0.00  0.00    +0.015 A 
ATOM     10  C   UNL     1     -48.459  -6.004  30.938  0.00  0.00    +0.263 C 
ATOM     11  O   UNL     1     -48.399  -6.580  29.855  0.00  0.00    -0.267 OA
ENDROOT
BRANCH  10  12
ATOM     12  C   UNL     1     -47.244  -5.972  31.796  0.00  0.00    +0.040 A 
ATOM     13  C   UNL     1     -46.229  -5.039  31.544  0.00  0.00    -0.049 A 
ATOM     14  C   UNL     1     -45.065  -5.049  32.308  0.00  0.00    -0.061 A 
ATOM     15  C   UNL     1     -44.924  -5.967  33.347  0.00  0.00    -0.062 A 
ATOM     16  C   UNL     1     -45.959  -6.857  33.640  0.00  0.00    -0.061 A 
ATOM     17  C   UNL     1     -47.125  -6.857  32.872  0.00  0.00    -0.049 A 
ENDBRANCH  10  12
BRANCH   9  18
ATOM     18  C   UNL     1     -51.713  -3.113  33.437  0.00  0.00    +0.120 C 
BRANCH  18  19
ATOM     19  O   UNL     1     -51.233  -3.353  34.770  0.00  0.00    -0.456 OA
BRANCH  19  20
ATOM     20  C   UNL     1     -50.669  -2.296  35.397  0.00  0.00    +0.339 C 
ATOM     21  O   UNL     1     -51.250  -1.455  36.062  0.00  0.00    -0.245 OA
BRANCH  20  22
ATOM     22  C   UNL     1     -49.197  -2.261  35.162  0.00  0.00    +0.059 A 
ATOM     23  C   UNL     1     -48.494  -3.475  35.164  0.00  0.00    -0.048 A 
ATOM     24  C   UNL     1     -47.111  -3.491  34.975  0.00  0.00    -0.061 A 
ATOM     25  C   UNL     1     -46.422  -2.296  34.773  0.00  0.00    -0.062 A 
ATOM     26  C   UNL     1     -47.115  -1.087  34.751  0.00  0.00    -0.061 A 
ATOM     27  C   UNL     1     -48.499  -1.066  34.945  0.00  0.00    -0.048 A 
ENDBRANCH  20  22
ENDBRANCH  19  20
ENDBRANCH  18  19
ENDBRANCH   9  18
TORSDOF 5
ENDMDL
MODEL 3
REMARK VINA RESULT:    -7.823      1.683      2.988
REMARK INTER + INTRA:         -11.999
REMARK INTER:                 -10.519
REMARK INTRA:                  -1.481
REMARK UNBOUND:                -1.890
REMARK  Name = 15d.sdf
REMARK  5 active torsions:
REMARK  status: ('A' for Active; 'I' for Inactive)
REMARK    1  A    between atoms: C_9  and  C_10
REMARK    2  A    between atoms: C_10  and  O_11
REMARK    3  A    between atoms: O_11  and  C_12
REMARK    4  A    between atoms: C_12  and  C_13
REMARK    5  A    between atoms: C_15  and  C_16
REMARK                            x       y       z     vdW  Elec       q    Type
REMARK                         _______ _______ _______ _____ _____    ______ ____
ROOT
ATOM      1  C   UNL     1     -50.164  -1.212  35.648  0.00  0.00    -0.061 A 
ATOM      2  C   UNL     1     -48.886  -0.726  35.409  0.00  0.00    -0.060 A 
ATOM      3  C   UNL     1     -47.862  -1.577  34.980  0.00  0.00    -0.037 A 
ATOM      4  C   UNL     1     -48.152  -2.943  34.801  0.00  0.00    +0.057 A 
ATOM      5  C   UNL     1     -49.439  -3.450  35.036  0.00  0.00    +0.007 A 
ATOM      6  C   UNL     1     -50.451  -2.567  35.463  0.00  0.00    -0.052 A 
ATOM      7  N   UNL     1     -47.362  -3.992  34.329  0.00  0.00    -0.283 N 
ATOM      8  C   UNL     1     -48.134  -5.146  34.353  0.00  0.00    +0.020 A 
ATOM      9  C   UNL     1     -49.420  -4.848  34.750  0.00  0.00    +0.015 A 
ATOM     10  C   UNL     1     -46.021  -3.916  33.873  0.00  0.00    +0.263 C 
ATOM     11  O   UNL     1     -45.316  -2.995  34.275  0.00  0.00    -0.267 OA
ENDROOT
BRANCH  10  12
ATOM     12  C   UNL     1     -45.435  -4.901  32.924  0.00  0.00    +0.040 A 
ATOM     13  C   UNL     1     -44.942  -4.474  31.683  0.00  0.00    -0.049 A 
ATOM     14  C   UNL     1     -44.450  -5.403  30.770  0.00  0.00    -0.061 A 
ATOM     15  C   UNL     1     -44.417  -6.755  31.105  0.00  0.00    -0.062 A 
ATOM     16  C   UNL     1     -44.849  -7.177  32.364  0.00  0.00    -0.061 A 
ATOM     17  C   UNL     1     -45.352  -6.251  33.280  0.00  0.00    -0.049 A 
ENDBRANCH  10  12
BRANCH   9  18
ATOM     18  C   UNL     1     -50.574  -5.801  34.827  0.00  0.00    +0.120 C 
BRANCH  18  19
ATOM     19  O   UNL     1     -51.096  -6.111  33.525  0.00  0.00    -0.456 OA
BRANCH  19  20
ATOM     20  C   UNL     1     -52.435  -5.992  33.379  0.00  0.00    +0.339 C 
ATOM     21  O   UNL     1     -53.230  -6.906  33.237  0.00  0.00    -0.245 OA
BRANCH  20  22
ATOM     22  C   UNL     1     -52.848  -4.560  33.391  0.00  0.00    +0.059 A 
ATOM     23  C   UNL     1     -52.309  -3.705  32.419  0.00  0.00    -0.048 A 
ATOM     24  C   UNL     1     -52.644  -2.349  32.406  0.00  0.00    -0.061 A 
ATOM     25  C   UNL     1     -53.526  -1.841  33.358  0.00  0.00    -0.062 A 
ATOM     26  C   UNL     1     -54.081  -2.687  34.317  0.00  0.00    -0.061 A 
ATOM     27  C   UNL     1     -53.745  -4.044  34.336  0.00  0.00    -0.048 A 
ENDBRANCH  20  22
ENDBRANCH  19  20
ENDBRANCH  18  19
ENDBRANCH   9  18
TORSDOF 5
ENDMDL
