MODEL 1
REMARK VINA RESULT:    -7.510      0.000      0.000
REMARK INTER + INTRA:         -12.527
REMARK INTER:                 -10.145
REMARK INTRA:                  -2.382
REMARK UNBOUND:                -2.382
REMARK  Name = 16c.sdf
REMARK  6 active torsions:
REMARK  status: ('A' for Active; 'I' for Inactive)
REMARK    1  A    between atoms: N_7  and  C_11
REMARK    2  A    between atoms: C_9  and  C_10
REMARK    3  A    between atoms: C_10  and  O_19
REMARK    4  A    between atoms: C_11  and  C_12
REMARK    5  A    between atoms: O_19  and  C_20
REMARK    6  A    between atoms: C_20  and  C_21
REMARK                            x       y       z     vdW  Elec       q    Type
REMARK                         _______ _______ _______ _____ _____    ______ ____
ROOT
ATOM      1  C   UNL     1     -49.709  -6.355  29.142  0.00  0.00    -0.061 A 
ATOM      2  C   UNL     1     -50.198  -5.139  29.613  0.00  0.00    -0.060 A 
ATOM      3  C   UNL     1     -50.433  -4.935  30.979  0.00  0.00    -0.038 A 
ATOM      4  C   UNL     1     -50.156  -5.987  31.868  0.00  0.00    +0.050 A 
ATOM      5  C   UNL     1     -49.627  -7.201  31.419  0.00  0.00    +0.005 A 
ATOM      6  C   UNL     1     -49.408  -7.385  30.038  0.00  0.00    -0.052 A 
ATOM      7  N   UNL     1     -50.309  -6.101  33.237  0.00  0.00    -0.342 N 
ATOM      8  C   UNL     1     -49.824  -7.314  33.663  0.00  0.00    +0.011 A 
ATOM      9  C   UNL     1     -49.375  -8.017  32.562  0.00  0.00    +0.003 A 
ENDROOT
BRANCH   9  10
ATOM     10  C   UNL     1     -48.695  -9.348  32.563  0.00  0.00    +0.075 C 
BRANCH  10  11
ATOM     11  O   UNL     1     -47.341  -9.282  33.027  0.00  0.00    -0.371 OA
BRANCH  11  12
ATOM     12  C   UNL     1     -46.446  -8.799  32.031  0.00  0.00    +0.073 C 
BRANCH  12  13
ATOM     13  C   UNL     1     -46.083  -7.376  32.370  0.00  0.00    -0.022 A 
ATOM     14  C   UNL     1     -45.777  -7.019  33.691  0.00  0.00    -0.055 A 
ATOM     15  C   UNL     1     -45.445  -5.701  34.008  0.00  0.00    -0.043 A 
ATOM     16  C   UNL     1     -45.433  -4.733  33.007  0.00  0.00    +0.041 A 
ATOM     17  C   UNL     1     -45.748  -5.073  31.691  0.00  0.00    -0.043 A 
ATOM     18  C   UNL     1     -46.081  -6.388  31.377  0.00  0.00    -0.055 A 
ATOM     19 CL   UNL     1     -45.026  -3.106  33.395  0.00  0.00    -0.084 Cl
ENDBRANCH  12  13
ENDBRANCH  11  12
ENDBRANCH  10  11
ENDBRANCH   9  10
BRANCH   7  20
ATOM     20  C   UNL     1     -50.960  -5.134  34.120  0.00  0.00    +0.048 C 
BRANCH  20  21
ATOM     21  C   UNL     1     -50.029  -4.007  34.498  0.00  0.00    -0.028 A 
ATOM     22  C   UNL     1     -50.356  -2.679  34.184  0.00  0.00    -0.055 A 
ATOM     23  C   UNL     1     -49.458  -1.644  34.447  0.00  0.00    -0.043 A 
ATOM     24  C   UNL     1     -48.229  -1.927  35.038  0.00  0.00    +0.041 A 
ATOM     25  C   UNL     1     -47.905  -3.233  35.398  0.00  0.00    -0.043 A 
ATOM     26  C   UNL     1     -48.803  -4.270  35.132  0.00  0.00    -0.055 A 
ATOM     27 CL   UNL     1     -47.097  -0.659  35.305  0.00  0.00    -0.084 Cl
ENDBRANCH  20  21
ENDBRANCH   7  20
TORSDOF 6
ENDMDL
MODEL 2
REMARK VINA RESULT:    -7.430      2.943      5.377
REMARK INTER + INTRA:         -12.418
REMARK INTER:                 -10.392
REMARK INTRA:                  -2.026
REMARK UNBOUND:                -2.382
REMARK  Name = 16c.sdf
REMARK  6 active torsions:
REMARK  status: ('A' for Active; 'I' for Inactive)
REMARK    1  A    between atoms: N_7  and  C_11
REMARK    2  A    between atoms: C_9  and  C_10
REMARK    3  A    between atoms: C_10  and  O_19
REMARK    4  A    between atoms: C_11  and  C_12
REMARK    5  A    between atoms: O_19  and  C_20
REMARK    6  A    between atoms: C_20  and  C_21
REMARK                            x       y       z     vdW  Elec       q    Type
REMARK                         _______ _______ _______ _____ _____    ______ ____
ROOT
ATOM      1  C   UNL     1     -47.977  -0.456  35.344  0.00  0.00    -0.061 A 
ATOM      2  C   UNL     1     -49.339  -0.655  35.561  0.00  0.00    -0.060 A 
ATOM      3  C   UNL     1     -49.923  -1.916  35.383  0.00  0.00    -0.038 A 
ATOM      4  C   UNL     1     -49.099  -2.982  34.985  0.00  0.00    +0.050 A 
ATOM      5  C   UNL     1     -47.724  -2.811  34.801  0.00  0.00    +0.005 A 
ATOM      6  C   UNL     1     -47.162  -1.530  34.977  0.00  0.00    -0.052 A 
ATOM      7  N   UNL     1     -49.378  -4.306  34.703  0.00  0.00    -0.342 N 
ATOM      8  C   UNL     1     -48.213  -4.980  34.424  0.00  0.00    +0.011 A 
ATOM      9  C   UNL     1     -47.162  -4.087  34.493  0.00  0.00    +0.003 A 
ENDROOT
BRANCH   9  10
ATOM     10  C   UNL     1     -45.708  -4.397  34.342  0.00  0.00    +0.075 C 
BRANCH  10  11
ATOM     11  O   UNL     1     -45.255  -4.297  32.987  0.00  0.00    -0.371 OA
BRANCH  11  12
ATOM     12  C   UNL     1     -44.694  -5.515  32.507  0.00  0.00    +0.073 C 
BRANCH  12  13
ATOM     13  C   UNL     1     -45.817  -6.484  32.245  0.00  0.00    -0.022 A 
ATOM     14  C   UNL     1     -46.803  -6.184  31.293  0.00  0.00    -0.055 A 
ATOM     15  C   UNL     1     -47.847  -7.078  31.052  0.00  0.00    -0.043 A 
ATOM     16  C   UNL     1     -47.916  -8.269  31.772  0.00  0.00    +0.041 A 
ATOM     17  C   UNL     1     -46.949  -8.572  32.731  0.00  0.00    -0.043 A 
ATOM     18  C   UNL     1     -45.909  -7.677  32.972  0.00  0.00    -0.055 A 
ATOM     19 CL   UNL     1     -49.204  -9.372  31.478  0.00  0.00    -0.084 Cl
ENDBRANCH  12  13
ENDBRANCH  11  12
ENDBRANCH  10  11
ENDBRANCH   9  10
BRANCH   7  20
ATOM     20  C   UNL     1     -50.705  -4.914  34.623  0.00  0.00    +0.048 C 
BRANCH  20  21
ATOM     21  C   UNL     1     -50.977  -5.485  33.252  0.00  0.00    -0.028 A 
ATOM     22  C   UNL     1     -50.853  -4.679  32.110  0.00  0.00    -0.055 A 
ATOM     23  C   UNL     1     -51.194  -5.174  30.850  0.00  0.00    -0.043 A 
ATOM     24  C   UNL     1     -51.650  -6.483  30.721  0.00  0.00    +0.041 A 
ATOM     25  C   UNL     1     -51.738  -7.312  31.837  0.00  0.00    -0.043 A 
ATOM     26  C   UNL     1     -51.399  -6.815  33.099  0.00  0.00    -0.055 A 
ATOM     27 CL   UNL     1     -52.129  -7.073  29.177  0.00  0.00    -0.084 Cl
ENDBRANCH  20  21
ENDBRANCH   7  20
TORSDOF 6
ENDMDL
MODEL 3
REMARK VINA RESULT:    -7.429      2.656      5.717
REMARK INTER + INTRA:         -12.416
REMARK INTER:                 -10.668
REMARK INTRA:                  -1.748
REMARK UNBOUND:                -2.382
REMARK  Name = 16c.sdf
REMARK  6 active torsions:
REMARK  status: ('A' for Active; 'I' for Inactive)
REMARK    1  A    between atoms: N_7  and  C_11
REMARK    2  A    between atoms: C_9  and  C_10
REMARK    3  A    between atoms: C_10  and  O_19
REMARK    4  A    between atoms: C_11  and  C_12
REMARK    5  A    between atoms: O_19  and  C_20
REMARK    6  A    between atoms: C_20  and  C_21
REMARK                            x       y       z     vdW  Elec       q    Type
REMARK                         _______ _______ _______ _____ _____    ______ ____
ROOT
ATOM      1  C   UNL     1     -50.837  -0.452  35.328  0.00  0.00    -0.061 A 
ATOM      2  C   UNL     1     -49.521  -0.234  35.730  0.00  0.00    -0.060 A 
ATOM      3  C   UNL     1     -48.517  -1.169  35.452  0.00  0.00    -0.038 A 
ATOM      4  C   UNL     1     -48.867  -2.334  34.750  0.00  0.00    +0.050 A 
ATOM      5  C   UNL     1     -50.173  -2.552  34.303  0.00  0.00    +0.005 A 
ATOM      6  C   UNL     1     -51.168  -1.599  34.604  0.00  0.00    -0.052 A 
ATOM      7  N   UNL     1     -48.124  -3.434  34.361  0.00  0.00    -0.342 N 
ATOM      8  C   UNL     1     -48.907  -4.290  33.624  0.00  0.00    +0.011 A 
ATOM      9  C   UNL     1     -50.182  -3.766  33.552  0.00  0.00    +0.003 A 
ENDROOT
BRANCH   9  10
ATOM     10  C   UNL     1     -51.339  -4.320  32.785  0.00  0.00    +0.075 C 
BRANCH  10  11
ATOM     11  O   UNL     1     -51.067  -4.451  31.385  0.00  0.00    -0.371 OA
BRANCH  11  12
ATOM     12  C   UNL     1     -51.463  -5.718  30.869  0.00  0.00    +0.073 C 
BRANCH  12  13
ATOM     13  C   UNL     1     -50.373  -6.713  31.169  0.00  0.00    -0.022 A 
ATOM     14  C   UNL     1     -50.657  -7.875  31.902  0.00  0.00    -0.055 A 
ATOM     15  C   UNL     1     -49.648  -8.796  32.186  0.00  0.00    -0.043 A 
ATOM     16  C   UNL     1     -48.348  -8.552  31.750  0.00  0.00    +0.041 A 
ATOM     17  C   UNL     1     -48.049  -7.394  31.031  0.00  0.00    -0.043 A 
ATOM     18  C   UNL     1     -49.058  -6.474  30.751  0.00  0.00    -0.055 A 
ATOM     19 CL   UNL     1     -47.102  -9.685  32.100  0.00  0.00    -0.084 Cl
ENDBRANCH  12  13
ENDBRANCH  11  12
ENDBRANCH  10  11
ENDBRANCH   9  10
BRANCH   7  20
ATOM     20  C   UNL     1     -46.738  -3.717  34.729  0.00  0.00    +0.048 C 
BRANCH  20  21
ATOM     21  C   UNL     1     -46.065  -4.619  33.723  0.00  0.00    -0.028 A 
ATOM     22  C   UNL     1     -45.932  -5.992  33.977  0.00  0.00    -0.055 A 
ATOM     23  C   UNL     1     -45.228  -6.814  33.094  0.00  0.00    -0.043 A 
ATOM     24  C   UNL     1     -44.662  -6.270  31.945  0.00  0.00    +0.041 A 
ATOM     25  C   UNL     1     -44.821  -4.918  31.654  0.00  0.00    -0.043 A 
ATOM     26  C   UNL     1     -45.523  -4.094  32.538  0.00  0.00    -0.055 A 
ATOM     27 CL   UNL     1     -43.742  -7.271  30.890  0.00  0.00    -0.084 Cl
ENDBRANCH  20  21
ENDBRANCH   7  20
TORSDOF 6
ENDMDL
