MODEL 1
REMARK VINA RESULT:    -8.234      0.000      0.000
REMARK INTER + INTRA:         -10.933
REMARK INTER:                 -10.160
REMARK INTRA:                  -0.773
REMARK UNBOUND:                -0.773
REMARK  Name = 17c.sdf
REMARK  4 active torsions:
REMARK  status: ('A' for Active; 'I' for Inactive)
REMARK    1  A    between atoms: N_7  and  C_16
REMARK    2  A    between atoms: C_9  and  C_10
REMARK    3  A    between atoms: N_11  and  N_12
REMARK    4  A    between atoms: C_16  and  C_17
REMARK                            x       y       z     vdW  Elec       q    Type
REMARK                         _______ _______ _______ _____ _____    ______ ____
ROOT
ATOM      1  C   UNL     1     -49.226  -6.448  30.442  0.00  0.00    -0.061 A 
ATOM      2  C   UNL     1     -50.184  -6.052  31.368  0.00  0.00    -0.060 A 
ATOM      3  C   UNL     1     -49.821  -5.377  32.542  0.00  0.00    -0.038 A 
ATOM      4  C   UNL     1     -48.457  -5.135  32.784  0.00  0.00    +0.050 A 
ATOM      5  C   UNL     1     -47.482  -5.477  31.835  0.00  0.00    +0.009 A 
ATOM      6  C   UNL     1     -47.880  -6.143  30.653  0.00  0.00    -0.052 A 
ATOM      7  N   UNL     1     -47.789  -4.593  33.873  0.00  0.00    -0.342 N 
ATOM      8  C   UNL     1     -46.447  -4.506  33.585  0.00  0.00    +0.015 A 
ATOM      9  C   UNL     1     -46.219  -5.028  32.328  0.00  0.00    +0.020 A 
ENDROOT
BRANCH   9  10
ATOM     10  C   UNL     1     -44.935  -5.099  31.659  0.00  0.00    +0.055 C 
ATOM     11  N   UNL     1     -44.153  -6.100  31.907  0.00  0.00    -0.186 NA
BRANCH  11  12
ATOM     12  N   UNL     1     -42.943  -6.080  31.269  0.00  0.00    -0.191 N 
ATOM     13  C   UNL     1     -42.614  -7.020  30.315  0.00  0.00    +0.317 C 
ATOM     14  O   UNL     1     -41.559  -7.009  29.712  0.00  0.00    -0.251 OA
ATOM     15  N   UNL     1     -43.568  -7.957  30.126  0.00  0.00    -0.312 N 
ATOM     16  H   UNL     1     -42.292  -5.377  31.496  0.00  0.00    +0.000 HD
ATOM     17  H   UNL     1     -44.406  -7.918  30.641  0.00  0.00    +0.000 HD
ATOM     18  H   UNL     1     -43.426  -8.679  29.471  0.00  0.00    +0.000 HD
ENDBRANCH  11  12
ENDBRANCH   9  10
BRANCH   7  19
ATOM     19  C   UNL     1     -48.339  -4.292  35.200  0.00  0.00    +0.048 C 
BRANCH  19  20
ATOM     20  C   UNL     1     -49.010  -2.941  35.245  0.00  0.00    -0.028 A 
ATOM     21  C   UNL     1     -48.238  -1.771  35.263  0.00  0.00    -0.055 A 
ATOM     22  C   UNL     1     -48.831  -0.535  35.526  0.00  0.00    -0.043 A 
ATOM     23  C   UNL     1     -50.206  -0.457  35.729  0.00  0.00    +0.041 A 
ATOM     24  C   UNL     1     -51.002  -1.590  35.595  0.00  0.00    -0.043 A 
ATOM     25  C   UNL     1     -50.407  -2.831  35.351  0.00  0.00    -0.055 A 
ATOM     26 CL   UNL     1     -50.913   1.037  36.206  0.00  0.00    -0.084 Cl
ENDBRANCH  19  20
ENDBRANCH   7  19
TORSDOF 4
ENDMDL
MODEL 2
REMARK VINA RESULT:    -7.924      4.679      7.494
REMARK INTER + INTRA:         -10.550
REMARK INTER:                  -9.810
REMARK INTRA:                  -0.739
REMARK UNBOUND:                -0.773
REMARK  Name = 17c.sdf
REMARK  4 active torsions:
REMARK  status: ('A' for Active; 'I' for Inactive)
REMARK    1  A    between atoms: N_7  and  C_16
REMARK    2  A    between atoms: C_9  and  C_10
REMARK    3  A    between atoms: N_11  and  N_12
REMARK    4  A    between atoms: C_16  and  C_17
REMARK                            x       y       z     vdW  Elec       q    Type
REMARK                         _______ _______ _______ _____ _____    ______ ____
ROOT
ATOM      1  C   UNL     1     -50.208  -0.595  34.850  0.00  0.00    -0.061 A 
ATOM      2  C   UNL     1     -48.981  -1.023  35.344  0.00  0.00    -0.060 A 
ATOM      3  C   UNL     1     -48.480  -2.295  35.035  0.00  0.00    -0.038 A 
ATOM      4  C   UNL     1     -49.262  -3.151  34.239  0.00  0.00    +0.050 A 
ATOM      5  C   UNL     1     -50.476  -2.716  33.686  0.00  0.00    +0.009 A 
ATOM      6  C   UNL     1     -50.948  -1.421  34.001  0.00  0.00    -0.052 A 
ATOM      7  N   UNL     1     -49.092  -4.473  33.852  0.00  0.00    -0.342 N 
ATOM      8  C   UNL     1     -50.114  -4.833  33.005  0.00  0.00    +0.015 A 
ATOM      9  C   UNL     1     -50.982  -3.769  32.864  0.00  0.00    +0.020 A 
ENDROOT
BRANCH   9  10
ATOM     10  C   UNL     1     -52.173  -3.749  32.039  0.00  0.00    +0.055 C 
ATOM     11  N   UNL     1     -52.791  -4.861  31.803  0.00  0.00    -0.186 NA
BRANCH  11  12
ATOM     12  N   UNL     1     -53.884  -4.771  30.985  0.00  0.00    -0.191 N 
ATOM     13  C   UNL     1     -53.995  -5.531  29.840  0.00  0.00    +0.317 C 
ATOM     14  O   UNL     1     -54.967  -5.493  29.112  0.00  0.00    -0.251 OA
ATOM     15  N   UNL     1     -52.918  -6.310  29.600  0.00  0.00    -0.312 N 
ATOM     16  H   UNL     1     -54.610  -4.149  31.221  0.00  0.00    +0.000 HD
ATOM     17  H   UNL     1     -52.157  -6.303  30.224  0.00  0.00    +0.000 HD
ATOM     18  H   UNL     1     -52.894  -6.885  28.801  0.00  0.00    +0.000 HD
ENDBRANCH  11  12
ENDBRANCH   9  10
BRANCH   7  19
ATOM     19  C   UNL     1     -48.100  -5.431  34.354  0.00  0.00    +0.048 C 
BRANCH  19  20
ATOM     20  C   UNL     1     -46.913  -5.558  33.432  0.00  0.00    -0.028 A 
ATOM     21  C   UNL     1     -46.529  -6.816  32.947  0.00  0.00    -0.055 A 
ATOM     22  C   UNL     1     -45.314  -6.978  32.278  0.00  0.00    -0.043 A 
ATOM     23  C   UNL     1     -44.497  -5.873  32.053  0.00  0.00    +0.041 A 
ATOM     24  C   UNL     1     -44.919  -4.599  32.422  0.00  0.00    -0.043 A 
ATOM     25  C   UNL     1     -46.126  -4.440  33.108  0.00  0.00    -0.055 A 
ATOM     26 CL   UNL     1     -42.934  -6.095  31.371  0.00  0.00    -0.084 Cl
ENDBRANCH  19  20
ENDBRANCH   7  19
TORSDOF 4
ENDMDL
MODEL 3
REMARK VINA RESULT:    -7.827      2.764      4.846
REMARK INTER + INTRA:         -10.430
REMARK INTER:                  -9.585
REMARK INTRA:                  -0.846
REMARK UNBOUND:                -0.773
REMARK  Name = 17c.sdf
REMARK  4 active torsions:
REMARK  status: ('A' for Active; 'I' for Inactive)
REMARK    1  A    between atoms: N_7  and  C_16
REMARK    2  A    between atoms: C_9  and  C_10
REMARK    3  A    between atoms: N_11  and  N_12
REMARK    4  A    between atoms: C_16  and  C_17
REMARK                            x       y       z     vdW  Elec       q    Type
REMARK                         _______ _______ _______ _____ _____    ______ ____
ROOT
ATOM      1  C   UNL     1     -47.008  -1.107  34.857  0.00  0.00    -0.061 A 
ATOM      2  C   UNL     1     -48.347  -1.152  35.226  0.00  0.00    -0.060 A 
ATOM      3  C   UNL     1     -49.072  -2.351  35.177  0.00  0.00    -0.038 A 
ATOM      4  C   UNL     1     -48.424  -3.510  34.712  0.00  0.00    +0.050 A 
ATOM      5  C   UNL     1     -47.059  -3.495  34.389  0.00  0.00    +0.009 A 
ATOM      6  C   UNL     1     -46.349  -2.274  34.464  0.00  0.00    -0.052 A 
ATOM      7  N   UNL     1     -48.886  -4.794  34.459  0.00  0.00    -0.342 N 
ATOM      8  C   UNL     1     -47.830  -5.590  34.080  0.00  0.00    +0.015 A 
ATOM      9  C   UNL     1     -46.680  -4.827  34.041  0.00  0.00    +0.020 A 
ENDROOT
BRANCH   9  10
ATOM     10  C   UNL     1     -45.355  -5.308  33.704  0.00  0.00    +0.055 C 
ATOM     11  N   UNL     1     -45.052  -5.493  32.460  0.00  0.00    -0.186 NA
BRANCH  11  12
ATOM     12  N   UNL     1     -43.798  -5.984  32.220  0.00  0.00    -0.191 N 
ATOM     13  C   UNL     1     -43.512  -6.715  31.086  0.00  0.00    +0.317 C 
ATOM     14  O   UNL     1     -42.401  -7.137  30.835  0.00  0.00    -0.251 OA
ATOM     15  N   UNL     1     -44.585  -6.926  30.293  0.00  0.00    -0.312 N 
ATOM     16  H   UNL     1     -43.081  -5.809  32.873  0.00  0.00    +0.000 HD
ATOM     17  H   UNL     1     -45.463  -6.560  30.545  0.00  0.00    +0.000 HD
ATOM     18  H   UNL     1     -44.488  -7.446  29.463  0.00  0.00    +0.000 HD
ENDBRANCH  11  12
ENDBRANCH   9  10
BRANCH   7  19
ATOM     19  C   UNL     1     -50.280  -5.252  34.424  0.00  0.00    +0.048 C 
BRANCH  19  20
ATOM     20  C   UNL     1     -50.681  -5.755  33.059  0.00  0.00    -0.028 A 
ATOM     21  C   UNL     1     -50.791  -4.861  31.984  0.00  0.00    -0.055 A 
ATOM     22  C   UNL     1     -51.369  -5.269  30.781  0.00  0.00    -0.043 A 
ATOM     23  C   UNL     1     -51.800  -6.584  30.631  0.00  0.00    +0.041 A 
ATOM     24  C   UNL     1     -51.588  -7.513  31.645  0.00  0.00    -0.043 A 
ATOM     25  C   UNL     1     -51.027  -7.101  32.857  0.00  0.00    -0.055 A 
ATOM     26 CL   UNL     1     -52.652  -7.045  29.209  0.00  0.00    -0.084 Cl
ENDBRANCH  19  20
ENDBRANCH   7  19
TORSDOF 4
ENDMDL
