MODEL 1
REMARK VINA RESULT:    -7.834      0.000      0.000
REMARK INTER + INTRA:         -11.652
REMARK INTER:                 -10.582
REMARK INTRA:                  -1.070
REMARK UNBOUND:                -1.070
REMARK  Name = 17j.sdf
REMARK  8 active torsions:
REMARK  status: ('A' for Active; 'I' for Inactive)
REMARK    1  A    between atoms: N_7  and  C_16
REMARK    2  A    between atoms: C_9  and  C_10
REMARK    3  A    between atoms: N_11  and  N_12
REMARK    4  A    between atoms: C_16  and  C_17
REMARK    5  A    between atoms: C_19  and  O_23
REMARK    6  A    between atoms: C_21  and  O_25
REMARK    7  A    between atoms: O_23  and  C_24
REMARK    8  A    between atoms: O_25  and  C_26
REMARK                            x       y       z     vdW  Elec       q    Type
REMARK                         _______ _______ _______ _____ _____    ______ ____
ROOT
ATOM      1  C   UNL     1     -46.691  -1.289  34.800  0.00  0.00    -0.061 A 
ATOM      2  C   UNL     1     -48.033  -1.302  35.162  0.00  0.00    -0.060 A 
ATOM      3  C   UNL     1     -48.789  -2.477  35.082  0.00  0.00    -0.038 A 
ATOM      4  C   UNL     1     -48.155  -3.643  34.622  0.00  0.00    +0.050 A 
ATOM      5  C   UNL     1     -46.794  -3.664  34.293  0.00  0.00    +0.009 A 
ATOM      6  C   UNL     1     -46.058  -2.461  34.377  0.00  0.00    -0.052 A 
ATOM      7  N   UNL     1     -48.643  -4.916  34.399  0.00  0.00    -0.342 N 
ATOM      8  C   UNL     1     -47.622  -5.744  34.008  0.00  0.00    +0.015 A 
ATOM      9  C   UNL     1     -46.455  -5.007  33.937  0.00  0.00    +0.020 A 
ENDROOT
BRANCH   9  10
ATOM     10  C   UNL     1     -45.151  -5.524  33.576  0.00  0.00    +0.055 C 
ATOM     11  N   UNL     1     -44.729  -5.373  32.362  0.00  0.00    -0.186 NA
BRANCH  11  12
ATOM     12  N   UNL     1     -43.494  -5.905  32.101  0.00  0.00    -0.191 N 
ATOM     13  C   UNL     1     -43.269  -6.692  30.999  0.00  0.00    +0.317 C 
ATOM     14  O   UNL     1     -42.173  -7.165  30.728  0.00  0.00    -0.251 OA
ATOM     15  N   UNL     1     -44.368  -6.890  30.229  0.00  0.00    -0.312 N 
ATOM     16  H   UNL     1     -42.751  -5.718  32.718  0.00  0.00    +0.000 HD
ATOM     17  H   UNL     1     -45.229  -6.490  30.487  0.00  0.00    +0.000 HD
ATOM     18  H   UNL     1     -44.304  -7.436  29.412  0.00  0.00    +0.000 HD
ENDBRANCH  11  12
ENDBRANCH   9  10
BRANCH   7  19
ATOM     19  C   UNL     1     -50.042  -5.337  34.499  0.00  0.00    +0.049 C 
BRANCH  19  20
ATOM     20  C   UNL     1     -50.886  -5.039  33.279  0.00  0.00    -0.021 A 
ATOM     21  C   UNL     1     -50.929  -5.871  32.152  0.00  0.00    -0.015 A 
ATOM     22  C   UNL     1     -51.656  -5.507  31.016  0.00  0.00    +0.124 A 
ATOM     23  C   UNL     1     -52.396  -4.322  31.019  0.00  0.00    +0.022 A 
ATOM     24  C   UNL     1     -52.408  -3.499  32.143  0.00  0.00    +0.124 A 
ATOM     25  C   UNL     1     -51.654  -3.861  33.264  0.00  0.00    -0.015 A 
BRANCH  22  26
ATOM     26  O   UNL     1     -51.712  -6.219  29.848  0.00  0.00    -0.495 OA
ATOM     27  C   UNL     1     -50.771  -7.277  29.703  0.00  0.00    +0.079 C 
ENDBRANCH  22  26
BRANCH  24  28
ATOM     28  O   UNL     1     -53.102  -2.326  32.272  0.00  0.00    -0.495 OA
ATOM     29  C   UNL     1     -53.915  -2.186  33.433  0.00  0.00    +0.079 C 
ENDBRANCH  24  28
ENDBRANCH  19  20
ENDBRANCH   7  19
TORSDOF 6
ENDMDL
MODEL 2
REMARK VINA RESULT:    -7.700      0.635      2.477
REMARK INTER + INTRA:         -11.471
REMARK INTER:                 -10.399
REMARK INTRA:                  -1.072
REMARK UNBOUND:                -1.070
REMARK  Name = 17j.sdf
REMARK  8 active torsions:
REMARK  status: ('A' for Active; 'I' for Inactive)
REMARK    1  A    between atoms: N_7  and  C_16
REMARK    2  A    between atoms: C_9  and  C_10
REMARK    3  A    between atoms: N_11  and  N_12
REMARK    4  A    between atoms: C_16  and  C_17
REMARK    5  A    between atoms: C_19  and  O_23
REMARK    6  A    between atoms: C_21  and  O_25
REMARK    7  A    between atoms: O_23  and  C_24
REMARK    8  A    between atoms: O_25  and  C_26
REMARK                            x       y       z     vdW  Elec       q    Type
REMARK                         _______ _______ _______ _____ _____    ______ ____
ROOT
ATOM      1  C   UNL     1     -46.748  -1.374  34.793  0.00  0.00    -0.061 A 
ATOM      2  C   UNL     1     -48.087  -1.460  35.156  0.00  0.00    -0.060 A 
ATOM      3  C   UNL     1     -48.778  -2.674  35.081  0.00  0.00    -0.038 A 
ATOM      4  C   UNL     1     -48.081  -3.806  34.624  0.00  0.00    +0.050 A 
ATOM      5  C   UNL     1     -46.721  -3.753  34.294  0.00  0.00    +0.009 A 
ATOM      6  C   UNL     1     -46.052  -2.511  34.373  0.00  0.00    -0.052 A 
ATOM      7  N   UNL     1     -48.499  -5.104  34.405  0.00  0.00    -0.342 N 
ATOM      8  C   UNL     1     -47.434  -5.876  34.016  0.00  0.00    +0.015 A 
ATOM      9  C   UNL     1     -46.309  -5.077  33.942  0.00  0.00    +0.020 A 
ENDROOT
BRANCH   9  10
ATOM     10  C   UNL     1     -44.979  -5.522  33.581  0.00  0.00    +0.055 C 
ATOM     11  N   UNL     1     -44.625  -5.501  32.337  0.00  0.00    -0.186 NA
BRANCH  11  12
ATOM     12  N   UNL     1     -43.358  -5.954  32.081  0.00  0.00    -0.191 N 
ATOM     13  C   UNL     1     -43.085  -6.749  30.996  0.00  0.00    +0.317 C 
ATOM     14  O   UNL     1     -41.960  -7.154  30.730  0.00  0.00    -0.251 OA
ATOM     15  N   UNL     1     -44.171  -7.039  30.236  0.00  0.00    -0.312 N 
ATOM     16  H   UNL     1     -42.627  -5.703  32.690  0.00  0.00    +0.000 HD
ATOM     17  H   UNL     1     -45.056  -6.691  30.490  0.00  0.00    +0.000 HD
ATOM     18  H   UNL     1     -44.073  -7.598  29.432  0.00  0.00    +0.000 HD
ENDBRANCH  11  12
ENDBRANCH   9  10
BRANCH   7  19
ATOM     19  C   UNL     1     -49.873  -5.601  34.509  0.00  0.00    +0.049 C 
BRANCH  19  20
ATOM     20  C   UNL     1     -50.802  -5.137  33.408  0.00  0.00    -0.021 A 
ATOM     21  C   UNL     1     -51.924  -4.328  33.638  0.00  0.00    -0.015 A 
ATOM     22  C   UNL     1     -52.799  -4.000  32.601  0.00  0.00    +0.124 A 
ATOM     23  C   UNL     1     -52.527  -4.437  31.302  0.00  0.00    +0.022 A 
ATOM     24  C   UNL     1     -51.395  -5.203  31.036  0.00  0.00    +0.124 A 
ATOM     25  C   UNL     1     -50.540  -5.548  32.089  0.00  0.00    -0.015 A 
BRANCH  22  26
ATOM     26  O   UNL     1     -53.949  -3.270  32.735  0.00  0.00    -0.495 OA
ATOM     27  C   UNL     1     -53.794  -1.894  33.068  0.00  0.00    +0.079 C 
ENDBRANCH  22  26
BRANCH  24  28
ATOM     28  O   UNL     1     -51.015  -5.676  29.809  0.00  0.00    -0.495 OA
ATOM     29  C   UNL     1     -49.777  -5.199  29.293  0.00  0.00    +0.079 C 
ENDBRANCH  24  28
ENDBRANCH  19  20
ENDBRANCH   7  19
TORSDOF 6
ENDMDL
MODEL 3
REMARK VINA RESULT:    -7.583      1.724      3.195
REMARK INTER + INTRA:         -11.313
REMARK INTER:                 -10.360
REMARK INTRA:                  -0.953
REMARK UNBOUND:                -1.070
REMARK  Name = 17j.sdf
REMARK  8 active torsions:
REMARK  status: ('A' for Active; 'I' for Inactive)
REMARK    1  A    between atoms: N_7  and  C_16
REMARK    2  A    between atoms: C_9  and  C_10
REMARK    3  A    between atoms: N_11  and  N_12
REMARK    4  A    between atoms: C_16  and  C_17
REMARK    5  A    between atoms: C_19  and  O_23
REMARK    6  A    between atoms: C_21  and  O_25
REMARK    7  A    between atoms: O_23  and  C_24
REMARK    8  A    between atoms: O_25  and  C_26
REMARK                            x       y       z     vdW  Elec       q    Type
REMARK                         _______ _______ _______ _____ _____    ______ ____
ROOT
ATOM      1  C   UNL     1     -47.683  -2.765  35.040  0.00  0.00    -0.061 A 
ATOM      2  C   UNL     1     -48.994  -3.185  35.239  0.00  0.00    -0.060 A 
ATOM      3  C   UNL     1     -49.409  -4.461  34.844  0.00  0.00    -0.038 A 
ATOM      4  C   UNL     1     -48.467  -5.307  34.238  0.00  0.00    +0.050 A 
ATOM      5  C   UNL     1     -47.131  -4.923  34.067  0.00  0.00    +0.009 A 
ATOM      6  C   UNL     1     -46.742  -3.625  34.468  0.00  0.00    -0.052 A 
ATOM      7  N   UNL     1     -48.590  -6.580  33.715  0.00  0.00    -0.342 N 
ATOM      8  C   UNL     1     -47.367  -7.028  33.286  0.00  0.00    +0.015 A 
ATOM      9  C   UNL     1     -46.431  -6.031  33.493  0.00  0.00    +0.020 A 
ENDROOT
BRANCH   9  10
ATOM     10  C   UNL     1     -45.019  -6.122  33.186  0.00  0.00    +0.055 C 
ATOM     11  N   UNL     1     -44.626  -5.928  31.969  0.00  0.00    -0.186 NA
BRANCH  11  12
ATOM     12  N   UNL     1     -43.278  -6.049  31.762  0.00  0.00    -0.191 N 
ATOM     13  C   UNL     1     -42.752  -7.093  31.043  0.00  0.00    +0.317 C 
ATOM     14  O   UNL     1     -41.553  -7.218  30.824  0.00  0.00    -0.251 OA
ATOM     15  N   UNL     1     -43.680  -7.970  30.584  0.00  0.00    -0.312 N 
ATOM     16  H   UNL     1     -42.672  -5.371  32.138  0.00  0.00    +0.000 HD
ATOM     17  H   UNL     1     -44.632  -7.829  30.786  0.00  0.00    +0.000 HD
ATOM     18  H   UNL     1     -43.399  -8.749  30.051  0.00  0.00    +0.000 HD
ENDBRANCH  11  12
ENDBRANCH   9  10
BRANCH   7  19
ATOM     19  C   UNL     1     -49.833  -7.341  33.572  0.00  0.00    +0.049 C 
BRANCH  19  20
ATOM     20  C   UNL     1     -50.543  -7.159  32.248  0.00  0.00    -0.021 A 
ATOM     21  C   UNL     1     -51.364  -6.060  31.960  0.00  0.00    -0.015 A 
ATOM     22  C   UNL     1     -52.066  -5.983  30.755  0.00  0.00    +0.124 A 
ATOM     23  C   UNL     1     -51.908  -6.987  29.797  0.00  0.00    +0.022 A 
ATOM     24  C   UNL     1     -51.062  -8.066  30.037  0.00  0.00    +0.124 A 
ATOM     25  C   UNL     1     -50.385  -8.146  31.259  0.00  0.00    -0.015 A 
BRANCH  22  26
ATOM     26  O   UNL     1     -52.937  -4.985  30.407  0.00  0.00    -0.495 OA
ATOM     27  C   UNL     1     -54.208  -5.395  29.914  0.00  0.00    +0.079 C 
ENDBRANCH  22  26
BRANCH  24  28
ATOM     28  O   UNL     1     -50.815  -9.101  29.175  0.00  0.00    -0.495 OA
ATOM     29  C   UNL     1     -51.879 -10.021  28.957  0.00  0.00    +0.079 C 
ENDBRANCH  24  28
ENDBRANCH  19  20
ENDBRANCH   7  19
TORSDOF 6
ENDMDL
