MODEL 1
REMARK VINA RESULT:    -7.738      0.000      0.000
REMARK INTER + INTRA:         -12.070
REMARK INTER:                 -10.904
REMARK INTRA:                  -1.165
REMARK UNBOUND:                -1.165
REMARK  Name = 17k.sdf
REMARK  10 active torsions:
REMARK  status: ('A' for Active; 'I' for Inactive)
REMARK    1  A    between atoms: N_7  and  C_16
REMARK    2  A    between atoms: C_9  and  C_10
REMARK    3  A    between atoms: N_11  and  N_12
REMARK    4  A    between atoms: C_16  and  C_17
REMARK    5  A    between atoms: C_19  and  O_23
REMARK    6  A    between atoms: C_20  and  O_27
REMARK    7  A    between atoms: C_21  and  O_25
REMARK    8  A    between atoms: O_23  and  C_24
REMARK    9  A    between atoms: O_25  and  C_26
REMARK   10  A    between atoms: O_27  and  C_28
REMARK                            x       y       z     vdW  Elec       q    Type
REMARK                         _______ _______ _______ _____ _____    ______ ____
ROOT
ATOM      1  C   UNL     1     -47.403  -1.603  34.957  0.00  0.00    -0.061 A 
ATOM      2  C   UNL     1     -48.650  -2.021  35.410  0.00  0.00    -0.060 A 
ATOM      3  C   UNL     1     -49.060  -3.350  35.263  0.00  0.00    -0.038 A 
ATOM      4  C   UNL     1     -48.181  -4.251  34.640  0.00  0.00    +0.050 A 
ATOM      5  C   UNL     1     -46.903  -3.863  34.216  0.00  0.00    +0.009 A 
ATOM      6  C   UNL     1     -46.519  -2.513  34.371  0.00  0.00    -0.052 A 
ATOM      7  N   UNL     1     -48.324  -5.588  34.323  0.00  0.00    -0.342 N 
ATOM      8  C   UNL     1     -47.160  -6.062  33.774  0.00  0.00    +0.015 A 
ATOM      9  C   UNL     1     -46.248  -5.026  33.703  0.00  0.00    +0.020 A 
ENDROOT
BRANCH   9  10
ATOM     10  C   UNL     1     -44.892  -5.127  33.206  0.00  0.00    +0.055 C 
ATOM     11  N   UNL     1     -44.636  -5.963  32.252  0.00  0.00    -0.186 NA
BRANCH  11  12
ATOM     12  N   UNL     1     -43.327  -6.011  31.853  0.00  0.00    -0.191 N 
ATOM     13  C   UNL     1     -42.845  -7.055  31.105  0.00  0.00    +0.317 C 
ATOM     14  O   UNL     1     -41.670  -7.150  30.772  0.00  0.00    -0.251 OA
ATOM     15  N   UNL     1     -43.780  -7.974  30.763  0.00  0.00    -0.312 N 
ATOM     16  H   UNL     1     -42.719  -5.280  32.109  0.00  0.00    +0.000 HD
ATOM     17  H   UNL     1     -44.714  -7.858  31.052  0.00  0.00    +0.000 HD
ATOM     18  H   UNL     1     -43.526  -8.758  30.224  0.00  0.00    +0.000 HD
ENDBRANCH  11  12
ENDBRANCH   9  10
BRANCH   7  19
ATOM     19  C   UNL     1     -49.537  -6.391  34.483  0.00  0.00    +0.049 C 
BRANCH  19  20
ATOM     20  C   UNL     1     -50.009  -7.084  33.223  0.00  0.00    -0.021 A 
ATOM     21  C   UNL     1     -49.802  -8.441  32.963  0.00  0.00    -0.011 A 
ATOM     22  C   UNL     1     -50.168  -9.030  31.739  0.00  0.00    +0.165 A 
ATOM     23  C   UNL     1     -50.814  -8.252  30.748  0.00  0.00    +0.204 A 
ATOM     24  C   UNL     1     -51.089  -6.896  31.028  0.00  0.00    +0.165 A 
ATOM     25  C   UNL     1     -50.680  -6.334  32.251  0.00  0.00    -0.011 A 
BRANCH  22  26
ATOM     26  O   UNL     1     -49.913 -10.353  31.475  0.00  0.00    -0.491 OA
ATOM     27  C   UNL     1     -48.595 -10.733  31.099  0.00  0.00    +0.079 C 
ENDBRANCH  22  26
BRANCH  24  28
ATOM     28  O   UNL     1     -51.730  -5.965  30.246  0.00  0.00    -0.491 OA
ATOM     29  C   UNL     1     -51.917  -4.645  30.736  0.00  0.00    +0.079 C 
ENDBRANCH  24  28
BRANCH  23  30
ATOM     30  O   UNL     1     -51.216  -8.701  29.518  0.00  0.00    -0.488 OA
ATOM     31  C   UNL     1     -52.510  -9.248  29.326  0.00  0.00    +0.079 C 
ENDBRANCH  23  30
ENDBRANCH  19  20
ENDBRANCH   7  19
TORSDOF 7
ENDMDL
MODEL 2
REMARK VINA RESULT:    -7.728      1.802      2.356
REMARK INTER + INTRA:         -12.056
REMARK INTER:                 -10.815
REMARK INTRA:                  -1.240
REMARK UNBOUND:                -1.165
REMARK  Name = 17k.sdf
REMARK  10 active torsions:
REMARK  status: ('A' for Active; 'I' for Inactive)
REMARK    1  A    between atoms: N_7  and  C_16
REMARK    2  A    between atoms: C_9  and  C_10
REMARK    3  A    between atoms: N_11  and  N_12
REMARK    4  A    between atoms: C_16  and  C_17
REMARK    5  A    between atoms: C_19  and  O_23
REMARK    6  A    between atoms: C_20  and  O_27
REMARK    7  A    between atoms: C_21  and  O_25
REMARK    8  A    between atoms: O_23  and  C_24
REMARK    9  A    between atoms: O_25  and  C_26
REMARK   10  A    between atoms: O_27  and  C_28
REMARK                            x       y       z     vdW  Elec       q    Type
REMARK                         _______ _______ _______ _____ _____    ______ ____
ROOT
ATOM      1  C   UNL     1     -46.892  -1.444  34.823  0.00  0.00    -0.061 A 
ATOM      2  C   UNL     1     -48.181  -1.747  35.249  0.00  0.00    -0.060 A 
ATOM      3  C   UNL     1     -48.694  -3.042  35.124  0.00  0.00    -0.038 A 
ATOM      4  C   UNL     1     -47.873  -4.028  34.551  0.00  0.00    +0.050 A 
ATOM      5  C   UNL     1     -46.557  -3.757  34.156  0.00  0.00    +0.009 A 
ATOM      6  C   UNL     1     -46.069  -2.439  34.288  0.00  0.00    -0.052 A 
ATOM      7  N   UNL     1     -48.116  -5.358  34.264  0.00  0.00    -0.342 N 
ATOM      8  C   UNL     1     -46.979  -5.940  33.764  0.00  0.00    +0.015 A 
ATOM      9  C   UNL     1     -45.984  -4.983  33.693  0.00  0.00    +0.020 A 
ENDROOT
BRANCH   9  10
ATOM     10  C   UNL     1     -44.628  -5.207  33.240  0.00  0.00    +0.055 C 
ATOM     11  N   UNL     1     -44.436  -5.755  32.084  0.00  0.00    -0.186 NA
BRANCH  11  12
ATOM     12  N   UNL     1     -43.126  -5.948  31.739  0.00  0.00    -0.191 N 
ATOM     13  C   UNL     1     -42.724  -7.067  31.055  0.00  0.00    +0.317 C 
ATOM     14  O   UNL     1     -41.553  -7.291  30.772  0.00  0.00    -0.251 OA
ATOM     15  N   UNL     1     -43.733  -7.905  30.715  0.00  0.00    -0.312 N 
ATOM     16  H   UNL     1     -42.458  -5.269  31.987  0.00  0.00    +0.000 HD
ATOM     17  H   UNL     1     -44.660  -7.685  30.962  0.00  0.00    +0.000 HD
ATOM     18  H   UNL     1     -43.539  -8.734  30.220  0.00  0.00    +0.000 HD
ENDBRANCH  11  12
ENDBRANCH   9  10
BRANCH   7  19
ATOM     19  C   UNL     1     -49.394  -6.056  34.408  0.00  0.00    +0.049 C 
BRANCH  19  20
ATOM     20  C   UNL     1     -50.375  -5.823  33.279  0.00  0.00    -0.021 A 
ATOM     21  C   UNL     1     -50.165  -6.262  31.969  0.00  0.00    -0.011 A 
ATOM     22  C   UNL     1     -51.051  -5.942  30.925  0.00  0.00    +0.165 A 
ATOM     23  C   UNL     1     -52.223  -5.199  31.198  0.00  0.00    +0.204 A 
ATOM     24  C   UNL     1     -52.479  -4.808  32.531  0.00  0.00    +0.165 A 
ATOM     25  C   UNL     1     -51.554  -5.119  33.544  0.00  0.00    -0.011 A 
BRANCH  22  26
ATOM     26  O   UNL     1     -50.807  -6.336  29.632  0.00  0.00    -0.491 OA
ATOM     27  C   UNL     1     -49.598  -5.924  29.008  0.00  0.00    +0.079 C 
ENDBRANCH  22  26
BRANCH  24  28
ATOM     28  O   UNL     1     -53.555  -4.120  33.038  0.00  0.00    -0.491 OA
ATOM     29  C   UNL     1     -53.531  -2.700  33.065  0.00  0.00    +0.079 C 
ENDBRANCH  24  28
BRANCH  23  30
ATOM     30  O   UNL     1     -53.161  -4.819  30.275  0.00  0.00    -0.488 OA
ATOM     31  C   UNL     1     -54.252  -5.665  29.950  0.00  0.00    +0.079 C 
ENDBRANCH  23  30
ENDBRANCH  19  20
ENDBRANCH   7  19
TORSDOF 7
ENDMDL
MODEL 3
REMARK VINA RESULT:    -7.696      1.911      3.112
REMARK INTER + INTRA:         -12.011
REMARK INTER:                 -10.795
REMARK INTRA:                  -1.216
REMARK UNBOUND:                -1.165
REMARK  Name = 17k.sdf
REMARK  10 active torsions:
REMARK  status: ('A' for Active; 'I' for Inactive)
REMARK    1  A    between atoms: N_7  and  C_16
REMARK    2  A    between atoms: C_9  and  C_10
REMARK    3  A    between atoms: N_11  and  N_12
REMARK    4  A    between atoms: C_16  and  C_17
REMARK    5  A    between atoms: C_19  and  O_23
REMARK    6  A    between atoms: C_20  and  O_27
REMARK    7  A    between atoms: C_21  and  O_25
REMARK    8  A    between atoms: O_23  and  C_24
REMARK    9  A    between atoms: O_25  and  C_26
REMARK   10  A    between atoms: O_27  and  C_28
REMARK                            x       y       z     vdW  Elec       q    Type
REMARK                         _______ _______ _______ _____ _____    ______ ____
ROOT
ATOM      1  C   UNL     1     -46.849  -1.459  34.817  0.00  0.00    -0.061 A 
ATOM      2  C   UNL     1     -48.157  -1.730  35.207  0.00  0.00    -0.060 A 
ATOM      3  C   UNL     1     -48.700  -3.010  35.061  0.00  0.00    -0.038 A 
ATOM      4  C   UNL     1     -47.892  -4.014  34.503  0.00  0.00    +0.050 A 
ATOM      5  C   UNL     1     -46.560  -3.776  34.143  0.00  0.00    +0.009 A 
ATOM      6  C   UNL     1     -46.040  -2.472  34.296  0.00  0.00    -0.052 A 
ATOM      7  N   UNL     1     -48.163  -5.335  34.200  0.00  0.00    -0.342 N 
ATOM      8  C   UNL     1     -47.030  -5.944  33.725  0.00  0.00    +0.015 A 
ATOM      9  C   UNL     1     -46.008  -5.014  33.686  0.00  0.00    +0.020 A 
ENDROOT
BRANCH   9  10
ATOM     10  C   UNL     1     -44.647  -5.272  33.267  0.00  0.00    +0.055 C 
ATOM     11  N   UNL     1     -44.439  -5.784  32.097  0.00  0.00    -0.186 NA
BRANCH  11  12
ATOM     12  N   UNL     1     -43.126  -6.014  31.785  0.00  0.00    -0.191 N 
ATOM     13  C   UNL     1     -42.745  -7.111  31.055  0.00  0.00    +0.317 C 
ATOM     14  O   UNL     1     -41.575  -7.368  30.799  0.00  0.00    -0.251 OA
ATOM     15  N   UNL     1     -43.775  -7.887  30.639  0.00  0.00    -0.312 N 
ATOM     16  H   UNL     1     -42.441  -5.377  32.090  0.00  0.00    +0.000 HD
ATOM     17  H   UNL     1     -44.700  -7.643  30.867  0.00  0.00    +0.000 HD
ATOM     18  H   UNL     1     -43.597  -8.697  30.106  0.00  0.00    +0.000 HD
ENDBRANCH  11  12
ENDBRANCH   9  10
BRANCH   7  19
ATOM     19  C   UNL     1     -49.463  -5.999  34.307  0.00  0.00    +0.049 C 
BRANCH  19  20
ATOM     20  C   UNL     1     -50.482  -5.569  33.274  0.00  0.00    -0.021 A 
ATOM     21  C   UNL     1     -51.594  -4.776  33.568  0.00  0.00    -0.011 A 
ATOM     22  C   UNL     1     -52.572  -4.477  32.602  0.00  0.00    +0.165 A 
ATOM     23  C   UNL     1     -52.416  -4.940  31.274  0.00  0.00    +0.204 A 
ATOM     24  C   UNL     1     -51.261  -5.685  30.951  0.00  0.00    +0.165 A 
ATOM     25  C   UNL     1     -50.320  -5.991  31.950  0.00  0.00    -0.011 A 
BRANCH  22  26
ATOM     26  O   UNL     1     -53.687  -3.740  32.916  0.00  0.00    -0.491 OA
ATOM     27  C   UNL     1     -53.587  -2.321  32.931  0.00  0.00    +0.079 C 
ENDBRANCH  22  26
BRANCH  24  28
ATOM     28  O   UNL     1     -50.879  -6.203  29.737  0.00  0.00    -0.491 OA
ATOM     29  C   UNL     1     -49.665  -5.772  29.139  0.00  0.00    +0.079 C 
ENDBRANCH  24  28
BRANCH  23  30
ATOM     30  O   UNL     1     -53.294  -4.723  30.245  0.00  0.00    -0.488 OA
ATOM     31  C   UNL     1     -54.340  -5.641  29.970  0.00  0.00    +0.079 C 
ENDBRANCH  23  30
ENDBRANCH  19  20
ENDBRANCH   7  19
TORSDOF 7
ENDMDL
