MODEL 1
REMARK VINA RESULT:    -9.046      0.000      0.000
REMARK INTER + INTRA:         -11.777
REMARK INTER:                 -11.162
REMARK INTRA:                  -0.615
REMARK UNBOUND:                -0.615
REMARK  Name = 18d.sdf
REMARK  4 active torsions:
REMARK  status: ('A' for Active; 'I' for Inactive)
REMARK    1  A    between atoms: C_9  and  C_10
REMARK    2  A    between atoms: N_11  and  N_12
REMARK    3  A    between atoms: C_13  and  C_15
REMARK    4  A    between atoms: C_16  and  C_17
REMARK                            x       y       z     vdW  Elec       q    Type
REMARK                         _______ _______ _______ _____ _____    ______ ____
ROOT
ATOM      1  C   UNL     1     -50.237  -0.735  35.139  0.00  0.00    -0.061 A 
ATOM      2  C   UNL     1     -48.904  -0.695  35.524  0.00  0.00    -0.060 A 
ATOM      3  C   UNL     1     -48.025  -1.725  35.176  0.00  0.00    -0.037 A 
ATOM      4  C   UNL     1     -48.522  -2.816  34.440  0.00  0.00    +0.057 A 
ATOM      5  C   UNL     1     -49.862  -2.869  34.025  0.00  0.00    +0.009 A 
ATOM      6  C   UNL     1     -50.725  -1.811  34.388  0.00  0.00    -0.052 A 
ATOM      7  N   UNL     1     -47.881  -3.959  33.956  0.00  0.00    -0.282 N 
ATOM      8  C   UNL     1     -48.826  -4.717  33.288  0.00  0.00    +0.023 A 
ATOM      9  C   UNL     1     -50.048  -4.077  33.287  0.00  0.00    +0.020 A 
ATOM     10  C   UNL     1     -46.518  -4.320  34.112  0.00  0.00    +0.263 C 
ATOM     11  O   UNL     1     -45.936  -3.967  35.144  0.00  0.00    -0.267 OA
ENDROOT
BRANCH  10  12
ATOM     12  C   UNL     1     -45.786  -5.144  33.122  0.00  0.00    +0.040 A 
ATOM     13  C   UNL     1     -45.078  -4.533  32.078  0.00  0.00    -0.049 A 
ATOM     14  C   UNL     1     -44.545  -5.312  31.057  0.00  0.00    -0.061 A 
ATOM     15  C   UNL     1     -44.669  -6.699  31.103  0.00  0.00    -0.062 A 
ATOM     16  C   UNL     1     -45.296  -7.315  32.190  0.00  0.00    -0.061 A 
ATOM     17  C   UNL     1     -45.849  -6.539  33.207  0.00  0.00    -0.049 A 
ENDBRANCH  10  12
BRANCH   9  18
ATOM     18  C   UNL     1     -51.253  -4.588  32.655  0.00  0.00    +0.055 C 
ATOM     19  N   UNL     1     -51.241  -4.832  31.384  0.00  0.00    -0.187 NA
BRANCH  19  20
ATOM     20  N   UNL     1     -52.398  -5.306  30.826  0.00  0.00    -0.203 N 
ATOM     21  C   UNL     1     -52.339  -6.376  29.942  0.00  0.00    +0.263 C 
ATOM     22  O   UNL     1     -51.311  -6.960  29.601  0.00  0.00    -0.268 OA
ATOM     23  H   UNL     1     -53.263  -4.891  31.050  0.00  0.00    +0.000 HD
BRANCH  21  24
ATOM     24  C   UNL     1     -53.647  -6.855  29.409  0.00  0.00    +0.038 A 
ATOM     25  C   UNL     1     -53.792  -8.120  28.825  0.00  0.00    -0.050 A 
ATOM     26  C   UNL     1     -55.033  -8.516  28.317  0.00  0.00    -0.061 A 
ATOM     27  C   UNL     1     -56.133  -7.661  28.405  0.00  0.00    -0.062 A 
ATOM     28  C   UNL     1     -56.003  -6.417  29.020  0.00  0.00    -0.061 A 
ATOM     29  C   UNL     1     -54.765  -6.016  29.525  0.00  0.00    -0.050 A 
ENDBRANCH  21  24
ENDBRANCH  19  20
ENDBRANCH   9  18
TORSDOF 4
ENDMDL
MODEL 2
REMARK VINA RESULT:    -8.926      1.470      4.885
REMARK INTER + INTRA:         -11.628
REMARK INTER:                 -11.503
REMARK INTRA:                  -0.125
REMARK UNBOUND:                -0.615
REMARK  Name = 18d.sdf
REMARK  4 active torsions:
REMARK  status: ('A' for Active; 'I' for Inactive)
REMARK    1  A    between atoms: C_9  and  C_10
REMARK    2  A    between atoms: N_11  and  N_12
REMARK    3  A    between atoms: C_13  and  C_15
REMARK    4  A    between atoms: C_16  and  C_17
REMARK                            x       y       z     vdW  Elec       q    Type
REMARK                         _______ _______ _______ _____ _____    ______ ____
ROOT
ATOM      1  C   UNL     1     -45.708  -6.811  33.439  0.00  0.00    -0.061 A 
ATOM      2  C   UNL     1     -45.206  -5.752  34.183  0.00  0.00    -0.060 A 
ATOM      3  C   UNL     1     -45.993  -4.629  34.455  0.00  0.00    -0.037 A 
ATOM      4  C   UNL     1     -47.304  -4.584  33.945  0.00  0.00    +0.057 A 
ATOM      5  C   UNL     1     -47.838  -5.651  33.206  0.00  0.00    +0.009 A 
ATOM      6  C   UNL     1     -47.019  -6.774  32.950  0.00  0.00    -0.052 A 
ATOM      7  N   UNL     1     -48.297  -3.609  34.066  0.00  0.00    -0.282 N 
ATOM      8  C   UNL     1     -49.410  -4.060  33.378  0.00  0.00    +0.023 A 
ATOM      9  C   UNL     1     -49.180  -5.315  32.853  0.00  0.00    +0.020 A 
ATOM     10  C   UNL     1     -48.217  -2.368  34.748  0.00  0.00    +0.263 C 
ATOM     11  O   UNL     1     -47.120  -1.800  34.793  0.00  0.00    -0.267 OA
ENDROOT
BRANCH  10  12
ATOM     12  C   UNL     1     -49.394  -1.706  35.355  0.00  0.00    +0.040 A 
ATOM     13  C   UNL     1     -50.578  -2.425  35.569  0.00  0.00    -0.049 A 
ATOM     14  C   UNL     1     -51.729  -1.755  35.972  0.00  0.00    -0.061 A 
ATOM     15  C   UNL     1     -51.687  -0.384  36.214  0.00  0.00    -0.062 A 
ATOM     16  C   UNL     1     -50.485   0.318  36.088  0.00  0.00    -0.061 A 
ATOM     17  C   UNL     1     -49.333  -0.343  35.667  0.00  0.00    -0.049 A 
ENDBRANCH  10  12
BRANCH   9  18
ATOM     18  C   UNL     1     -50.147  -6.086  32.091  0.00  0.00    +0.055 C 
ATOM     19  N   UNL     1     -50.823  -5.499  31.157  0.00  0.00    -0.187 NA
BRANCH  19  20
ATOM     20  N   UNL     1     -51.729  -6.260  30.466  0.00  0.00    -0.203 N 
ATOM     21  C   UNL     1     -53.048  -5.830  30.371  0.00  0.00    +0.263 C 
ATOM     22  O   UNL     1     -53.495  -4.796  30.867  0.00  0.00    -0.268 OA
ATOM     23  H   UNL     1     -51.448  -7.101  30.040  0.00  0.00    +0.000 HD
BRANCH  21  24
ATOM     24  C   UNL     1     -53.959  -6.695  29.570  0.00  0.00    +0.038 A 
ATOM     25  C   UNL     1     -55.336  -6.447  29.486  0.00  0.00    -0.050 A 
ATOM     26  C   UNL     1     -56.156  -7.300  28.742  0.00  0.00    -0.061 A 
ATOM     27  C   UNL     1     -55.605  -8.392  28.068  0.00  0.00    -0.062 A 
ATOM     28  C   UNL     1     -54.231  -8.621  28.117  0.00  0.00    -0.061 A 
ATOM     29  C   UNL     1     -53.409  -7.774  28.862  0.00  0.00    -0.050 A 
ENDBRANCH  21  24
ENDBRANCH  19  20
ENDBRANCH   9  18
TORSDOF 4
ENDMDL
MODEL 3
REMARK VINA RESULT:    -8.339      1.373      1.832
REMARK INTER + INTRA:         -10.904
REMARK INTER:                 -10.320
REMARK INTRA:                  -0.584
REMARK UNBOUND:                -0.615
REMARK  Name = 18d.sdf
REMARK  4 active torsions:
REMARK  status: ('A' for Active; 'I' for Inactive)
REMARK    1  A    between atoms: C_9  and  C_10
REMARK    2  A    between atoms: N_11  and  N_12
REMARK    3  A    between atoms: C_13  and  C_15
REMARK    4  A    between atoms: C_16  and  C_17
REMARK                            x       y       z     vdW  Elec       q    Type
REMARK                         _______ _______ _______ _____ _____    ______ ____
ROOT
ATOM      1  C   UNL     1     -50.172  -2.460  34.858  0.00  0.00    -0.061 A 
ATOM      2  C   UNL     1     -48.889  -2.508  35.384  0.00  0.00    -0.060 A 
ATOM      3  C   UNL     1     -47.924  -3.365  34.845  0.00  0.00    -0.037 A 
ATOM      4  C   UNL     1     -48.285  -4.193  33.765  0.00  0.00    +0.057 A 
ATOM      5  C   UNL     1     -49.572  -4.147  33.207  0.00  0.00    +0.009 A 
ATOM      6  C   UNL     1     -50.523  -3.268  33.771  0.00  0.00    -0.052 A 
ATOM      7  N   UNL     1     -47.537  -5.122  33.038  0.00  0.00    -0.282 N 
ATOM      8  C   UNL     1     -48.368  -5.663  32.073  0.00  0.00    +0.023 A 
ATOM      9  C   UNL     1     -49.617  -5.080  32.126  0.00  0.00    +0.020 A 
ATOM     10  C   UNL     1     -46.179  -5.483  33.230  0.00  0.00    +0.263 C 
ATOM     11  O   UNL     1     -45.723  -5.446  34.378  0.00  0.00    -0.267 OA
ENDROOT
BRANCH  10  12
ATOM     12  C   UNL     1     -45.308  -5.952  32.127  0.00  0.00    +0.040 A 
ATOM     13  C   UNL     1     -45.126  -7.324  31.904  0.00  0.00    -0.049 A 
ATOM     14  C   UNL     1     -44.174  -7.753  30.985  0.00  0.00    -0.061 A 
ATOM     15  C   UNL     1     -43.444  -6.819  30.252  0.00  0.00    -0.062 A 
ATOM     16  C   UNL     1     -43.689  -5.453  30.409  0.00  0.00    -0.061 A 
ATOM     17  C   UNL     1     -44.628  -5.015  31.341  0.00  0.00    -0.049 A 
ENDBRANCH  10  12
BRANCH   9  18
ATOM     18  C   UNL     1     -50.723  -5.402  31.240  0.00  0.00    +0.055 C 
ATOM     19  N   UNL     1     -51.348  -6.524  31.397  0.00  0.00    -0.187 NA
BRANCH  19  20
ATOM     20  N   UNL     1     -52.380  -6.793  30.537  0.00  0.00    -0.203 N 
ATOM     21  C   UNL     1     -53.217  -7.871  30.794  0.00  0.00    +0.263 C 
ATOM     22  O   UNL     1     -53.116  -8.636  31.753  0.00  0.00    -0.268 OA
ATOM     23  H   UNL     1     -52.527  -6.225  29.746  0.00  0.00    +0.000 HD
BRANCH  21  24
ATOM     24  C   UNL     1     -54.337  -8.071  29.832  0.00  0.00    +0.038 A 
ATOM     25  C   UNL     1     -54.367  -9.151  28.939  0.00  0.00    -0.050 A 
ATOM     26  C   UNL     1     -55.427  -9.284  28.038  0.00  0.00    -0.061 A 
ATOM     27  C   UNL     1     -56.466  -8.352  28.035  0.00  0.00    -0.062 A 
ATOM     28  C   UNL     1     -56.462  -7.298  28.947  0.00  0.00    -0.061 A 
ATOM     29  C   UNL     1     -55.403  -7.159  29.846  0.00  0.00    -0.050 A 
ENDBRANCH  21  24
ENDBRANCH  19  20
ENDBRANCH   9  18
TORSDOF 4
ENDMDL
