MODEL 1
REMARK VINA RESULT:    -5.627      0.000      0.000
REMARK INTER + INTRA:          -5.980
REMARK INTER:                  -5.955
REMARK INTRA:                  -0.025
REMARK UNBOUND:                -0.025
REMARK  Name = 1.sdf
REMARK  1 active torsions:
REMARK  status: ('A' for Active; 'I' for Inactive)
REMARK    1  A    between atoms: C_9  and  C_10
REMARK                            x       y       z     vdW  Elec       q    Type
REMARK                         _______ _______ _______ _____ _____    ______ ____
ROOT
ATOM      1  C   UNL     1     -49.864  -2.104  35.522  0.00  0.00    -0.061 A 
ATOM      2  C   UNL     1     -49.280  -0.840  35.540  0.00  0.00    -0.060 A 
ATOM      3  C   UNL     1     -47.951  -0.655  35.152  0.00  0.00    -0.038 A 
ATOM      4  C   UNL     1     -47.227  -1.784  34.750  0.00  0.00    +0.047 A 
ATOM      5  C   UNL     1     -47.781  -3.067  34.721  0.00  0.00    +0.010 A 
ATOM      6  C   UNL     1     -49.128  -3.223  35.113  0.00  0.00    -0.052 A 
ATOM      7  N   UNL     1     -45.923  -1.896  34.328  0.00  0.00    -0.360 N 
ATOM      8  C   UNL     1     -45.628  -3.200  34.044  0.00  0.00    +0.013 A 
ATOM      9  C   UNL     1     -46.759  -3.962  34.272  0.00  0.00    +0.039 A 
ATOM     10  H   UNL     1     -45.292  -1.144  34.244  0.00  0.00    +0.000 HD
ENDROOT
BRANCH   9  11
ATOM     11  C   UNL     1     -46.851  -5.397  34.085  0.00  0.00    +0.152 C 
ATOM     12  O   UNL     1     -45.900  -6.112  33.780  0.00  0.00    -0.296 OA
ENDBRANCH   9  11
TORSDOF 1
ENDMDL
MODEL 2
REMARK VINA RESULT:    -5.558      1.666      2.424
REMARK INTER + INTRA:          -5.908
REMARK INTER:                  -5.862
REMARK INTRA:                  -0.047
REMARK UNBOUND:                -0.025
REMARK  Name = 1.sdf
REMARK  1 active torsions:
REMARK  status: ('A' for Active; 'I' for Inactive)
REMARK    1  A    between atoms: C_9  and  C_10
REMARK                            x       y       z     vdW  Elec       q    Type
REMARK                         _______ _______ _______ _____ _____    ______ ____
ROOT
ATOM      1  C   UNL     1     -47.851  -0.709  35.185  0.00  0.00    -0.061 A 
ATOM      2  C   UNL     1     -49.181  -0.674  35.592  0.00  0.00    -0.060 A 
ATOM      3  C   UNL     1     -49.949  -1.839  35.647  0.00  0.00    -0.038 A 
ATOM      4  C   UNL     1     -49.335  -3.041  35.273  0.00  0.00    +0.047 A 
ATOM      5  C   UNL     1     -48.003  -3.112  34.858  0.00  0.00    +0.010 A 
ATOM      6  C   UNL     1     -47.250  -1.919  34.819  0.00  0.00    -0.052 A 
ATOM      7  N   UNL     1     -49.844  -4.318  35.227  0.00  0.00    -0.360 N 
ATOM      8  C   UNL     1     -48.888  -5.192  34.789  0.00  0.00    +0.013 A 
ATOM      9  C   UNL     1     -47.725  -4.483  34.552  0.00  0.00    +0.039 A 
ATOM     10  H   UNL     1     -50.765  -4.567  35.473  0.00  0.00    +0.000 HD
ENDROOT
BRANCH   9  11
ATOM     11  C   UNL     1     -46.480  -5.055  34.076  0.00  0.00    +0.152 C 
ATOM     12  O   UNL     1     -45.397  -4.900  34.633  0.00  0.00    -0.296 OA
ENDBRANCH   9  11
TORSDOF 1
ENDMDL
MODEL 3
REMARK VINA RESULT:    -5.383      2.364      3.904
REMARK INTER + INTRA:          -5.723
REMARK INTER:                  -5.698
REMARK INTRA:                  -0.025
REMARK UNBOUND:                -0.025
REMARK  Name = 1.sdf
REMARK  1 active torsions:
REMARK  status: ('A' for Active; 'I' for Inactive)
REMARK    1  A    between atoms: C_9  and  C_10
REMARK                            x       y       z     vdW  Elec       q    Type
REMARK                         _______ _______ _______ _____ _____    ______ ____
ROOT
ATOM      1  C   UNL     1     -46.993  -5.193  34.054  0.00  0.00    -0.061 A 
ATOM      2  C   UNL     1     -45.774  -4.564  33.817  0.00  0.00    -0.060 A 
ATOM      3  C   UNL     1     -45.616  -3.193  34.035  0.00  0.00    -0.038 A 
ATOM      4  C   UNL     1     -46.727  -2.475  34.495  0.00  0.00    +0.047 A 
ATOM      5  C   UNL     1     -47.966  -3.074  34.740  0.00  0.00    +0.010 A 
ATOM      6  C   UNL     1     -48.094  -4.462  34.517  0.00  0.00    -0.052 A 
ATOM      7  N   UNL     1     -46.858  -1.138  34.785  0.00  0.00    -0.360 N 
ATOM      8  C   UNL     1     -48.134  -0.866  35.196  0.00  0.00    +0.013 A 
ATOM      9  C   UNL     1     -48.855  -2.045  35.185  0.00  0.00    +0.039 A 
ATOM     10  H   UNL     1     -46.137  -0.471  34.708  0.00  0.00    +0.000 HD
ENDROOT
BRANCH   9  11
ATOM     11  C   UNL     1     -50.251  -2.173  35.558  0.00  0.00    +0.152 C 
ATOM     12  O   UNL     1     -50.973  -1.225  35.854  0.00  0.00    -0.296 OA
ENDBRANCH   9  11
TORSDOF 1
ENDMDL
