MODEL 1
REMARK VINA RESULT:    -7.961      0.000      0.000
REMARK INTER + INTRA:          -8.683
REMARK INTER:                  -8.892
REMARK INTRA:                   0.209
REMARK UNBOUND:                 0.209
REMARK  Name = 1d.sdf
REMARK  2 active torsions:
REMARK  status: ('A' for Active; 'I' for Inactive)
REMARK    1  A    between atoms: C_9  and  C_10
REMARK    2  A    between atoms: C_12  and  C_13
REMARK                            x       y       z     vdW  Elec       q    Type
REMARK                         _______ _______ _______ _____ _____    ______ ____
ROOT
ATOM      1  C   UNL     1     -49.789  -1.135  35.621  0.00  0.00    -0.061 A 
ATOM      2  C   UNL     1     -48.516  -0.693  35.284  0.00  0.00    -0.060 A 
ATOM      3  C   UNL     1     -47.542  -1.589  34.834  0.00  0.00    -0.037 A 
ATOM      4  C   UNL     1     -47.876  -2.952  34.728  0.00  0.00    +0.057 A 
ATOM      5  C   UNL     1     -49.157  -3.415  35.058  0.00  0.00    +0.011 A 
ATOM      6  C   UNL     1     -50.121  -2.488  35.514  0.00  0.00    -0.052 A 
ATOM      7  N   UNL     1     -47.135  -4.040  34.259  0.00  0.00    -0.282 N 
ATOM      8  C   UNL     1     -47.930  -5.167  34.368  0.00  0.00    +0.024 A 
ATOM      9  C   UNL     1     -49.181  -4.819  34.830  0.00  0.00    +0.040 A 
ATOM     10  C   UNL     1     -45.816  -4.023  33.739  0.00  0.00    +0.263 C 
ATOM     11  O   UNL     1     -45.076  -3.095  34.051  0.00  0.00    -0.267 OA
ENDROOT
BRANCH  10  12
ATOM     12  C   UNL     1     -45.296  -5.078  32.830  0.00  0.00    +0.040 A 
ATOM     13  C   UNL     1     -44.599  -4.720  31.668  0.00  0.00    -0.049 A 
ATOM     14  C   UNL     1     -44.163  -5.706  30.785  0.00  0.00    -0.061 A 
ATOM     15  C   UNL     1     -44.391  -7.049  31.077  0.00  0.00    -0.062 A 
ATOM     16  C   UNL     1     -45.031  -7.411  32.264  0.00  0.00    -0.061 A 
ATOM     17  C   UNL     1     -45.481  -6.427  33.147  0.00  0.00    -0.049 A 
ENDBRANCH  10  12
BRANCH   9  18
ATOM     18  C   UNL     1     -50.278  -5.750  35.029  0.00  0.00    +0.152 C 
ATOM     19  O   UNL     1     -50.147  -6.848  35.564  0.00  0.00    -0.296 OA
ENDBRANCH   9  18
TORSDOF 2
ENDMDL
MODEL 2
REMARK VINA RESULT:    -7.633      1.910      1.954
REMARK INTER + INTRA:          -8.317
REMARK INTER:                  -8.047
REMARK INTRA:                  -0.270
REMARK UNBOUND:                 0.209
REMARK  Name = 1d.sdf
REMARK  2 active torsions:
REMARK  status: ('A' for Active; 'I' for Inactive)
REMARK    1  A    between atoms: C_9  and  C_10
REMARK    2  A    between atoms: C_12  and  C_13
REMARK                            x       y       z     vdW  Elec       q    Type
REMARK                         _______ _______ _______ _____ _____    ______ ____
ROOT
ATOM      1  C   UNL     1     -50.901  -0.766  34.861  0.00  0.00    -0.061 A 
ATOM      2  C   UNL     1     -49.643  -0.735  35.451  0.00  0.00    -0.060 A 
ATOM      3  C   UNL     1     -48.707  -1.742  35.197  0.00  0.00    -0.037 A 
ATOM      4  C   UNL     1     -49.064  -2.791  34.329  0.00  0.00    +0.057 A 
ATOM      5  C   UNL     1     -50.326  -2.835  33.721  0.00  0.00    +0.011 A 
ATOM      6  C   UNL     1     -51.254  -1.806  33.998  0.00  0.00    -0.052 A 
ATOM      7  N   UNL     1     -48.323  -3.878  33.857  0.00  0.00    -0.282 N 
ATOM      8  C   UNL     1     -49.145  -4.617  33.025  0.00  0.00    +0.024 A 
ATOM      9  C   UNL     1     -50.369  -3.997  32.900  0.00  0.00    +0.040 A 
ATOM     10  C   UNL     1     -46.967  -4.183  34.140  0.00  0.00    +0.263 C 
ATOM     11  O   UNL     1     -46.466  -3.726  35.164  0.00  0.00    -0.267 OA
ENDROOT
BRANCH  10  12
ATOM     12  C   UNL     1     -46.130  -5.027  33.249  0.00  0.00    +0.040 A 
ATOM     13  C   UNL     1     -45.340  -4.430  32.258  0.00  0.00    -0.049 A 
ATOM     14  C   UNL     1     -44.600  -5.224  31.383  0.00  0.00    -0.061 A 
ATOM     15  C   UNL     1     -44.621  -6.611  31.519  0.00  0.00    -0.062 A 
ATOM     16  C   UNL     1     -45.359  -7.205  32.544  0.00  0.00    -0.061 A 
ATOM     17  C   UNL     1     -46.111  -6.416  33.416  0.00  0.00    -0.049 A 
ENDBRANCH  10  12
BRANCH   9  18
ATOM     18  C   UNL     1     -51.461  -4.480  32.073  0.00  0.00    +0.152 C 
ATOM     19  O   UNL     1     -51.320  -4.846  30.909  0.00  0.00    -0.296 OA
ENDBRANCH   9  18
TORSDOF 2
ENDMDL
MODEL 3
REMARK VINA RESULT:    -7.549      1.859      6.116
REMARK INTER + INTRA:          -8.223
REMARK INTER:                  -8.587
REMARK INTRA:                   0.364
REMARK UNBOUND:                 0.209
REMARK  Name = 1d.sdf
REMARK  2 active torsions:
REMARK  status: ('A' for Active; 'I' for Inactive)
REMARK    1  A    between atoms: C_9  and  C_10
REMARK    2  A    between atoms: C_12  and  C_13
REMARK                            x       y       z     vdW  Elec       q    Type
REMARK                         _______ _______ _______ _____ _____    ______ ____
ROOT
ATOM      1  C   UNL     1     -47.781  -9.071  32.246  0.00  0.00    -0.061 A 
ATOM      2  C   UNL     1     -48.898  -8.726  32.996  0.00  0.00    -0.060 A 
ATOM      3  C   UNL     1     -48.944  -7.520  33.701  0.00  0.00    -0.037 A 
ATOM      4  C   UNL     1     -47.833  -6.657  33.636  0.00  0.00    +0.057 A 
ATOM      5  C   UNL     1     -46.701  -6.986  32.880  0.00  0.00    +0.011 A 
ATOM      6  C   UNL     1     -46.680  -8.213  32.180  0.00  0.00    -0.052 A 
ATOM      7  N   UNL     1     -47.632  -5.386  34.180  0.00  0.00    -0.282 N 
ATOM      8  C   UNL     1     -46.362  -4.973  33.819  0.00  0.00    +0.024 A 
ATOM      9  C   UNL     1     -45.773  -5.914  33.004  0.00  0.00    +0.040 A 
ATOM     10  C   UNL     1     -48.548  -4.622  34.947  0.00  0.00    +0.263 C 
ATOM     11  O   UNL     1     -49.449  -5.211  35.538  0.00  0.00    -0.267 OA
ENDROOT
BRANCH  10  12
ATOM     12  C   UNL     1     -48.466  -3.143  35.060  0.00  0.00    +0.040 A 
ATOM     13  C   UNL     1     -47.218  -2.506  35.016  0.00  0.00    -0.049 A 
ATOM     14  C   UNL     1     -47.134  -1.125  35.182  0.00  0.00    -0.061 A 
ATOM     15  C   UNL     1     -48.296  -0.375  35.356  0.00  0.00    -0.062 A 
ATOM     16  C   UNL     1     -49.544  -0.999  35.339  0.00  0.00    -0.061 A 
ATOM     17  C   UNL     1     -49.634  -2.385  35.185  0.00  0.00    -0.049 A 
ENDBRANCH  10  12
BRANCH   9  18
ATOM     18  C   UNL     1     -44.453  -5.787  32.412  0.00  0.00    +0.152 C 
ATOM     19  O   UNL     1     -44.263  -5.559  31.220  0.00  0.00    -0.296 OA
ENDBRANCH   9  18
TORSDOF 2
ENDMDL
