MODEL 1
REMARK VINA RESULT:    -9.089      0.000      0.000
REMARK INTER + INTRA:         -12.984
REMARK INTER:                 -12.277
REMARK INTRA:                  -0.706
REMARK UNBOUND:                -0.706
REMARK  Name = 22c.sdf
REMARK  7 active torsions:
REMARK  status: ('A' for Active; 'I' for Inactive)
REMARK    1  A    between atoms: N_7  and  C_12
REMARK    2  A    between atoms: C_9  and  C_10
REMARK    3  A    between atoms: N_11  and  N_19
REMARK    4  A    between atoms: C_12  and  C_13
REMARK    5  A    between atoms: C_20  and  C_22
REMARK    6  A    between atoms: C_25  and  O_29
REMARK    7  A    between atoms: O_29  and  C_30
REMARK                            x       y       z     vdW  Elec       q    Type
REMARK                         _______ _______ _______ _____ _____    ______ ____
ROOT
ATOM      1  C   UNL     1     -50.697  -0.514  35.538  0.00  0.00    -0.061 A 
ATOM      2  C   UNL     1     -49.359  -0.292  35.829  0.00  0.00    -0.060 A 
ATOM      3  C   UNL     1     -48.372  -1.219  35.458  0.00  0.00    -0.038 A 
ATOM      4  C   UNL     1     -48.771  -2.393  34.795  0.00  0.00    +0.050 A 
ATOM      5  C   UNL     1     -50.111  -2.603  34.436  0.00  0.00    +0.009 A 
ATOM      6  C   UNL     1     -51.082  -1.652  34.826  0.00  0.00    -0.052 A 
ATOM      7  N   UNL     1     -48.066  -3.512  34.384  0.00  0.00    -0.342 N 
ATOM      8  C   UNL     1     -48.905  -4.358  33.699  0.00  0.00    +0.015 A 
ATOM      9  C   UNL     1     -50.176  -3.819  33.688  0.00  0.00    +0.020 A 
ENDROOT
BRANCH   9  10
ATOM     10  C   UNL     1     -51.342  -4.391  33.046  0.00  0.00    +0.055 C 
ATOM     11  N   UNL     1     -51.640  -4.061  31.833  0.00  0.00    -0.187 NA
BRANCH  11  12
ATOM     12  N   UNL     1     -52.767  -4.641  31.307  0.00  0.00    -0.203 N 
ATOM     13  C   UNL     1     -52.637  -5.643  30.359  0.00  0.00    +0.263 C 
ATOM     14  O   UNL     1     -51.566  -6.091  29.943  0.00  0.00    -0.268 OA
ATOM     15  H   UNL     1     -53.659  -4.347  31.600  0.00  0.00    +0.000 HD
BRANCH  13  16
ATOM     16  C   UNL     1     -53.908  -6.239  29.846  0.00  0.00    +0.039 A 
ATOM     17  C   UNL     1     -55.161  -5.662  30.073  0.00  0.00    -0.046 A 
ATOM     18  C   UNL     1     -56.316  -6.287  29.583  0.00  0.00    -0.019 A 
ATOM     19  C   UNL     1     -56.233  -7.470  28.841  0.00  0.00    +0.120 A 
ATOM     20  C   UNL     1     -54.985  -8.033  28.591  0.00  0.00    -0.019 A 
ATOM     21  C   UNL     1     -53.827  -7.418  29.087  0.00  0.00    -0.046 A 
BRANCH  19  22
ATOM     22  O   UNL     1     -57.435  -8.010  28.473  0.00  0.00    -0.495 OA
ATOM     23  C   UNL     1     -57.398  -9.012  27.463  0.00  0.00    +0.079 C 
ENDBRANCH  19  22
ENDBRANCH  13  16
ENDBRANCH  11  12
ENDBRANCH   9  10
BRANCH   7  24
ATOM     24  C   UNL     1     -46.684  -3.865  34.730  0.00  0.00    +0.048 C 
BRANCH  24  25
ATOM     25  C   UNL     1     -46.037  -4.726  33.673  0.00  0.00    -0.028 A 
ATOM     26  C   UNL     1     -46.071  -6.124  33.781  0.00  0.00    -0.055 A 
ATOM     27  C   UNL     1     -45.319  -6.920  32.915  0.00  0.00    -0.043 A 
ATOM     28  C   UNL     1     -44.555  -6.325  31.915  0.00  0.00    +0.041 A 
ATOM     29  C   UNL     1     -44.592  -4.945  31.728  0.00  0.00    -0.043 A 
ATOM     30  C   UNL     1     -45.333  -4.147  32.604  0.00  0.00    -0.055 A 
ATOM     31 CL   UNL     1     -43.525  -7.296  30.937  0.00  0.00    -0.084 Cl
ENDBRANCH  24  25
ENDBRANCH   7  24
TORSDOF 6
ENDMDL
MODEL 2
REMARK VINA RESULT:    -9.033      0.904      1.619
REMARK INTER + INTRA:         -12.907
REMARK INTER:                 -12.109
REMARK INTRA:                  -0.798
REMARK UNBOUND:                -0.706
REMARK  Name = 22c.sdf
REMARK  7 active torsions:
REMARK  status: ('A' for Active; 'I' for Inactive)
REMARK    1  A    between atoms: N_7  and  C_12
REMARK    2  A    between atoms: C_9  and  C_10
REMARK    3  A    between atoms: N_11  and  N_19
REMARK    4  A    between atoms: C_12  and  C_13
REMARK    5  A    between atoms: C_20  and  C_22
REMARK    6  A    between atoms: C_25  and  O_29
REMARK    7  A    between atoms: O_29  and  C_30
REMARK                            x       y       z     vdW  Elec       q    Type
REMARK                         _______ _______ _______ _____ _____    ______ ____
ROOT
ATOM      1  C   UNL     1     -50.951  -0.757  35.066  0.00  0.00    -0.061 A 
ATOM      2  C   UNL     1     -49.673  -0.395  35.464  0.00  0.00    -0.060 A 
ATOM      3  C   UNL     1     -48.574  -1.236  35.232  0.00  0.00    -0.038 A 
ATOM      4  C   UNL     1     -48.798  -2.470  34.597  0.00  0.00    +0.050 A 
ATOM      5  C   UNL     1     -50.073  -2.824  34.129  0.00  0.00    +0.009 A 
ATOM      6  C   UNL     1     -51.161  -1.957  34.381  0.00  0.00    -0.052 A 
ATOM      7  N   UNL     1     -47.956  -3.533  34.309  0.00  0.00    -0.342 N 
ATOM      8  C   UNL     1     -48.645  -4.484  33.594  0.00  0.00    +0.015 A 
ATOM      9  C   UNL     1     -49.954  -4.071  33.442  0.00  0.00    +0.020 A 
ENDROOT
BRANCH   9  10
ATOM     10  C   UNL     1     -50.996  -4.781  32.728  0.00  0.00    +0.055 C 
ATOM     11  N   UNL     1     -50.868  -5.019  31.465  0.00  0.00    -0.187 NA
BRANCH  11  12
ATOM     12  N   UNL     1     -51.907  -5.685  30.865  0.00  0.00    -0.203 N 
ATOM     13  C   UNL     1     -51.641  -6.793  30.078  0.00  0.00    +0.263 C 
ATOM     14  O   UNL     1     -50.519  -7.264  29.874  0.00  0.00    -0.268 OA
ATOM     15  H   UNL     1     -52.833  -5.377  30.992  0.00  0.00    +0.000 HD
BRANCH  13  16
ATOM     16  C   UNL     1     -52.824  -7.478  29.473  0.00  0.00    +0.039 A 
ATOM     17  C   UNL     1     -52.771  -8.785  28.979  0.00  0.00    -0.046 A 
ATOM     18  C   UNL     1     -53.912  -9.359  28.403  0.00  0.00    -0.019 A 
ATOM     19  C   UNL     1     -55.118  -8.652  28.338  0.00  0.00    +0.120 A 
ATOM     20  C   UNL     1     -55.180  -7.360  28.852  0.00  0.00    -0.019 A 
ATOM     21  C   UNL     1     -54.039  -6.778  29.421  0.00  0.00    -0.046 A 
BRANCH  19  22
ATOM     22  O   UNL     1     -56.138  -9.301  27.698  0.00  0.00    -0.495 OA
ATOM     23  C   UNL     1     -57.409  -8.662  27.718  0.00  0.00    +0.079 C 
ENDBRANCH  19  22
ENDBRANCH  13  16
ENDBRANCH  11  12
ENDBRANCH   9  10
BRANCH   7  24
ATOM     24  C   UNL     1     -46.587  -3.735  34.795  0.00  0.00    +0.048 C 
BRANCH  24  25
ATOM     25  C   UNL     1     -45.753  -4.536  33.824  0.00  0.00    -0.028 A 
ATOM     26  C   UNL     1     -45.291  -3.950  32.637  0.00  0.00    -0.055 A 
ATOM     27  C   UNL     1     -44.684  -4.730  31.651  0.00  0.00    -0.043 A 
ATOM     28  C   UNL     1     -44.506  -6.094  31.860  0.00  0.00    +0.041 A 
ATOM     29  C   UNL     1     -44.865  -6.673  33.075  0.00  0.00    -0.043 A 
ATOM     30  C   UNL     1     -45.485  -5.895  34.056  0.00  0.00    -0.055 A 
ATOM     31 CL   UNL     1     -43.883  -7.077  30.593  0.00  0.00    -0.084 Cl
ENDBRANCH  24  25
ENDBRANCH   7  24
TORSDOF 6
ENDMDL
MODEL 3
REMARK VINA RESULT:    -7.992      4.803      5.927
REMARK INTER + INTRA:         -11.502
REMARK INTER:                 -10.672
REMARK INTRA:                  -0.830
REMARK UNBOUND:                -0.706
REMARK  Name = 22c.sdf
REMARK  7 active torsions:
REMARK  status: ('A' for Active; 'I' for Inactive)
REMARK    1  A    between atoms: N_7  and  C_12
REMARK    2  A    between atoms: C_9  and  C_10
REMARK    3  A    between atoms: N_11  and  N_19
REMARK    4  A    between atoms: C_12  and  C_13
REMARK    5  A    between atoms: C_20  and  C_22
REMARK    6  A    between atoms: C_25  and  O_29
REMARK    7  A    between atoms: O_29  and  C_30
REMARK                            x       y       z     vdW  Elec       q    Type
REMARK                         _______ _______ _______ _____ _____    ______ ____
ROOT
ATOM      1  C   UNL     1     -47.921  -0.445  35.193  0.00  0.00    -0.061 A 
ATOM      2  C   UNL     1     -46.914  -1.398  35.217  0.00  0.00    -0.060 A 
ATOM      3  C   UNL     1     -47.168  -2.732  34.867  0.00  0.00    -0.038 A 
ATOM      4  C   UNL     1     -48.478  -3.091  34.503  0.00  0.00    +0.050 A 
ATOM      5  C   UNL     1     -49.494  -2.128  34.410  0.00  0.00    +0.009 A 
ATOM      6  C   UNL     1     -49.208  -0.792  34.773  0.00  0.00    -0.052 A 
ATOM      7  N   UNL     1     -49.054  -4.313  34.194  0.00  0.00    -0.342 N 
ATOM      8  C   UNL     1     -50.363  -4.122  33.819  0.00  0.00    +0.015 A 
ATOM      9  C   UNL     1     -50.667  -2.779  33.917  0.00  0.00    +0.020 A 
ENDROOT
BRANCH   9  10
ATOM     10  C   UNL     1     -51.938  -2.164  33.588  0.00  0.00    +0.055 C 
ATOM     11  N   UNL     1     -52.742  -1.796  34.530  0.00  0.00    -0.187 NA
BRANCH  11  12
ATOM     12  N   UNL     1     -53.928  -1.234  34.129  0.00  0.00    -0.203 N 
ATOM     13  C   UNL     1     -54.514  -0.253  34.912  0.00  0.00    +0.263 C 
ATOM     14  O   UNL     1     -54.044   0.190  35.962  0.00  0.00    -0.268 OA
ATOM     15  H   UNL     1     -54.358  -1.526  33.293  0.00  0.00    +0.000 HD
BRANCH  13  16
ATOM     16  C   UNL     1     -55.794   0.325  34.402  0.00  0.00    +0.039 A 
ATOM     17  C   UNL     1     -57.042  -0.000  34.945  0.00  0.00    -0.046 A 
ATOM     18  C   UNL     1     -58.206   0.561  34.403  0.00  0.00    -0.019 A 
ATOM     19  C   UNL     1     -58.140   1.467  33.340  0.00  0.00    +0.120 A 
ATOM     20  C   UNL     1     -56.898   1.813  32.814  0.00  0.00    -0.019 A 
ATOM     21  C   UNL     1     -55.731   1.248  33.346  0.00  0.00    -0.046 A 
BRANCH  19  22
ATOM     22  O   UNL     1     -59.349   1.895  32.865  0.00  0.00    -0.495 OA
ATOM     23  C   UNL     1     -59.433   3.262  32.479  0.00  0.00    +0.079 C 
ENDBRANCH  19  22
ENDBRANCH  13  16
ENDBRANCH  11  12
ENDBRANCH   9  10
BRANCH   7  24
ATOM     24  C   UNL     1     -48.459  -5.643  34.369  0.00  0.00    +0.048 C 
BRANCH  24  25
ATOM     25  C   UNL     1     -47.265  -5.852  33.470  0.00  0.00    -0.028 A 
ATOM     26  C   UNL     1     -47.441  -6.043  32.093  0.00  0.00    -0.055 A 
ATOM     27  C   UNL     1     -46.367  -6.423  31.286  0.00  0.00    -0.043 A 
ATOM     28  C   UNL     1     -45.102  -6.582  31.847  0.00  0.00    +0.041 A 
ATOM     29  C   UNL     1     -44.889  -6.295  33.193  0.00  0.00    -0.043 A 
ATOM     30  C   UNL     1     -45.967  -5.929  34.003  0.00  0.00    -0.055 A 
ATOM     31 CL   UNL     1     -43.810  -7.180  30.882  0.00  0.00    -0.084 Cl
ENDBRANCH  24  25
ENDBRANCH   7  24
TORSDOF 6
ENDMDL
