MODEL 1
REMARK VINA RESULT:    -9.322      0.000      0.000
REMARK INTER + INTRA:         -13.443
REMARK INTER:                 -12.592
REMARK INTRA:                  -0.851
REMARK UNBOUND:                -0.851
REMARK  Name = 25c.sdf
REMARK  7 active torsions:
REMARK  status: ('A' for Active; 'I' for Inactive)
REMARK    1  A    between atoms: N_7  and  C_10
REMARK    2  A    between atoms: C_9  and  C_18
REMARK    3  A    between atoms: C_10  and  C_11
REMARK    4  A    between atoms: N_19  and  N_20
REMARK    5  A    between atoms: C_21  and  C_23
REMARK    6  A    between atoms: C_25  and  O_29
REMARK    7  A    between atoms: C_27  and  O_30
REMARK                            x       y       z     vdW  Elec       q    Type
REMARK                         _______ _______ _______ _____ _____    ______ ____
ROOT
ATOM      1  C   UNL     1     -50.115  -0.686  35.157  0.00  0.00    -0.061 A 
ATOM      2  C   UNL     1     -48.772  -0.690  35.516  0.00  0.00    -0.060 A 
ATOM      3  C   UNL     1     -47.927  -1.746  35.148  0.00  0.00    -0.038 A 
ATOM      4  C   UNL     1     -48.472  -2.827  34.431  0.00  0.00    +0.050 A 
ATOM      5  C   UNL     1     -49.812  -2.807  34.003  0.00  0.00    +0.009 A 
ATOM      6  C   UNL     1     -50.636  -1.722  34.380  0.00  0.00    -0.052 A 
ATOM      7  N   UNL     1     -47.937  -4.037  34.017  0.00  0.00    -0.342 N 
ATOM      8  C   UNL     1     -48.870  -4.716  33.269  0.00  0.00    +0.015 A 
ATOM      9  C   UNL     1     -50.035  -3.976  33.215  0.00  0.00    +0.020 A 
ENDROOT
BRANCH   9  10
ATOM     10  C   UNL     1     -51.243  -4.338  32.499  0.00  0.00    +0.055 C 
ATOM     11  N   UNL     1     -51.161  -4.983  31.381  0.00  0.00    -0.187 NA
BRANCH  11  12
ATOM     12  N   UNL     1     -52.347  -5.284  30.758  0.00  0.00    -0.203 N 
ATOM     13  C   UNL     1     -52.661  -6.611  30.476  0.00  0.00    +0.263 C 
ATOM     14  O   UNL     1     -51.947  -7.582  30.714  0.00  0.00    -0.268 OA
ATOM     15  H   UNL     1     -52.971  -4.564  30.511  0.00  0.00    +0.000 HD
BRANCH  13  16
ATOM     16  C   UNL     1     -53.980  -6.849  29.820  0.00  0.00    +0.045 A 
ATOM     17  C   UNL     1     -54.358  -8.151  29.447  0.00  0.00    -0.008 A 
ATOM     18  C   UNL     1     -55.618  -8.364  28.884  0.00  0.00    +0.121 A 
ATOM     19  C   UNL     1     -56.502  -7.311  28.686  0.00  0.00    +0.021 A 
ATOM     20  C   UNL     1     -56.129  -6.029  29.063  0.00  0.00    +0.121 A 
ATOM     21  C   UNL     1     -54.881  -5.795  29.634  0.00  0.00    -0.008 A 
BRANCH  18  22
ATOM     22  O   UNL     1     -56.039  -9.608  28.512  0.00  0.00    -0.507 OA
ATOM     23  H   UNL     1     -56.921  -9.874  28.681  0.00  0.00    +0.000 HD
ENDBRANCH  18  22
BRANCH  20  24
ATOM     24  O   UNL     1     -56.943  -4.956  28.915  0.00  0.00    -0.507 OA
ATOM     25  H   UNL     1     -57.401  -4.610  29.655  0.00  0.00    +0.000 HD
ENDBRANCH  20  24
ENDBRANCH  13  16
ENDBRANCH  11  12
ENDBRANCH   9  10
BRANCH   7  26
ATOM     26  C   UNL     1     -46.653  -4.629  34.417  0.00  0.00    +0.048 C 
BRANCH  26  27
ATOM     27  C   UNL     1     -45.923  -5.255  33.253  0.00  0.00    -0.028 A 
ATOM     28  C   UNL     1     -45.779  -6.648  33.176  0.00  0.00    -0.055 A 
ATOM     29  C   UNL     1     -44.924  -7.223  32.234  0.00  0.00    -0.043 A 
ATOM     30  C   UNL     1     -44.241  -6.410  31.333  0.00  0.00    +0.041 A 
ATOM     31  C   UNL     1     -44.466  -5.036  31.317  0.00  0.00    -0.043 A 
ATOM     32  C   UNL     1     -45.307  -4.459  32.273  0.00  0.00    -0.055 A 
ATOM     33 CL   UNL     1     -43.071  -7.101  30.278  0.00  0.00    -0.084 Cl
ENDBRANCH  26  27
ENDBRANCH   7  26
TORSDOF 7
ENDMDL
MODEL 2
REMARK VINA RESULT:    -9.124      0.724      1.614
REMARK INTER + INTRA:         -13.175
REMARK INTER:                 -12.457
REMARK INTRA:                  -0.718
REMARK UNBOUND:                -0.851
REMARK  Name = 25c.sdf
REMARK  7 active torsions:
REMARK  status: ('A' for Active; 'I' for Inactive)
REMARK    1  A    between atoms: N_7  and  C_10
REMARK    2  A    between atoms: C_9  and  C_18
REMARK    3  A    between atoms: C_10  and  C_11
REMARK    4  A    between atoms: N_19  and  N_20
REMARK    5  A    between atoms: C_21  and  C_23
REMARK    6  A    between atoms: C_25  and  O_29
REMARK    7  A    between atoms: C_27  and  O_30
REMARK                            x       y       z     vdW  Elec       q    Type
REMARK                         _______ _______ _______ _____ _____    ______ ____
ROOT
ATOM      1  C   UNL     1     -50.885  -0.545  35.234  0.00  0.00    -0.061 A 
ATOM      2  C   UNL     1     -49.558  -0.349  35.598  0.00  0.00    -0.060 A 
ATOM      3  C   UNL     1     -48.575  -1.301  35.293  0.00  0.00    -0.038 A 
ATOM      4  C   UNL     1     -48.962  -2.483  34.635  0.00  0.00    +0.050 A 
ATOM      5  C   UNL     1     -50.288  -2.667  34.202  0.00  0.00    +0.009 A 
ATOM      6  C   UNL     1     -51.254  -1.683  34.515  0.00  0.00    -0.052 A 
ATOM      7  N   UNL     1     -48.265  -3.631  34.292  0.00  0.00    -0.342 N 
ATOM      8  C   UNL     1     -49.090  -4.470  33.579  0.00  0.00    +0.015 A 
ATOM      9  C   UNL     1     -50.344  -3.897  33.480  0.00  0.00    +0.020 A 
ENDROOT
BRANCH   9  10
ATOM     10  C   UNL     1     -51.484  -4.457  32.781  0.00  0.00    +0.055 C 
ATOM     11  N   UNL     1     -51.697  -4.148  31.544  0.00  0.00    -0.187 NA
BRANCH  11  12
ATOM     12  N   UNL     1     -52.801  -4.711  30.952  0.00  0.00    -0.203 N 
ATOM     13  C   UNL     1     -52.669  -5.898  30.234  0.00  0.00    +0.263 C 
ATOM     14  O   UNL     1     -51.618  -6.507  30.045  0.00  0.00    -0.268 OA
ATOM     15  H   UNL     1     -53.681  -4.278  31.034  0.00  0.00    +0.000 HD
BRANCH  13  16
ATOM     16  C   UNL     1     -53.923  -6.453  29.646  0.00  0.00    +0.045 A 
ATOM     17  C   UNL     1     -55.123  -5.726  29.731  0.00  0.00    -0.008 A 
ATOM     18  C   UNL     1     -56.276  -6.234  29.129  0.00  0.00    +0.121 A 
ATOM     19  C   UNL     1     -56.255  -7.445  28.447  0.00  0.00    +0.021 A 
ATOM     20  C   UNL     1     -55.066  -8.154  28.359  0.00  0.00    +0.121 A 
ATOM     21  C   UNL     1     -53.904  -7.663  28.945  0.00  0.00    -0.008 A 
BRANCH  18  22
ATOM     22  O   UNL     1     -57.465  -5.566  29.173  0.00  0.00    -0.507 OA
ATOM     23  H   UNL     1     -57.739  -5.148  29.965  0.00  0.00    +0.000 HD
ENDBRANCH  18  22
BRANCH  20  24
ATOM     24  O   UNL     1     -54.966  -9.334  27.700  0.00  0.00    -0.507 OA
ATOM     25  H   UNL     1     -54.548 -10.065  28.110  0.00  0.00    +0.000 HD
ENDBRANCH  20  24
ENDBRANCH  13  16
ENDBRANCH  11  12
ENDBRANCH   9  10
BRANCH   7  26
ATOM     26  C   UNL     1     -46.918  -4.022  34.728  0.00  0.00    +0.048 C 
BRANCH  26  27
ATOM     27  C   UNL     1     -46.178  -4.808  33.673  0.00  0.00    -0.028 A 
ATOM     28  C   UNL     1     -46.166  -6.210  33.714  0.00  0.00    -0.055 A 
ATOM     29  C   UNL     1     -45.312  -6.937  32.884  0.00  0.00    -0.043 A 
ATOM     30  C   UNL     1     -44.495  -6.269  31.976  0.00  0.00    +0.041 A 
ATOM     31  C   UNL     1     -44.583  -4.886  31.838  0.00  0.00    -0.043 A 
ATOM     32  C   UNL     1     -45.424  -4.156  32.683  0.00  0.00    -0.055 A 
ATOM     33 CL   UNL     1     -43.332  -7.151  31.065  0.00  0.00    -0.084 Cl
ENDBRANCH  26  27
ENDBRANCH   7  26
TORSDOF 7
ENDMDL
MODEL 3
REMARK VINA RESULT:    -8.813      1.057      2.065
REMARK INTER + INTRA:         -12.756
REMARK INTER:                 -11.839
REMARK INTRA:                  -0.916
REMARK UNBOUND:                -0.851
REMARK  Name = 25c.sdf
REMARK  7 active torsions:
REMARK  status: ('A' for Active; 'I' for Inactive)
REMARK    1  A    between atoms: N_7  and  C_10
REMARK    2  A    between atoms: C_9  and  C_18
REMARK    3  A    between atoms: C_10  and  C_11
REMARK    4  A    between atoms: N_19  and  N_20
REMARK    5  A    between atoms: C_21  and  C_23
REMARK    6  A    between atoms: C_25  and  O_29
REMARK    7  A    between atoms: C_27  and  O_30
REMARK                            x       y       z     vdW  Elec       q    Type
REMARK                         _______ _______ _______ _____ _____    ______ ____
ROOT
ATOM      1  C   UNL     1     -48.785  -2.142  34.912  0.00  0.00    -0.061 A 
ATOM      2  C   UNL     1     -47.427  -2.354  35.122  0.00  0.00    -0.060 A 
ATOM      3  C   UNL     1     -46.791  -3.508  34.642  0.00  0.00    -0.038 A 
ATOM      4  C   UNL     1     -47.562  -4.471  33.965  0.00  0.00    +0.050 A 
ATOM      5  C   UNL     1     -48.921  -4.242  33.688  0.00  0.00    +0.009 A 
ATOM      6  C   UNL     1     -49.532  -3.063  34.175  0.00  0.00    -0.052 A 
ATOM      7  N   UNL     1     -47.258  -5.730  33.470  0.00  0.00    -0.342 N 
ATOM      8  C   UNL     1     -48.354  -6.239  32.814  0.00  0.00    +0.015 A 
ATOM      9  C   UNL     1     -49.397  -5.336  32.904  0.00  0.00    +0.020 A 
ENDROOT
BRANCH   9  10
ATOM     10  C   UNL     1     -50.713  -5.493  32.317  0.00  0.00    +0.055 C 
ATOM     11  N   UNL     1     -50.846  -5.532  31.032  0.00  0.00    -0.187 NA
BRANCH  11  12
ATOM     12  N   UNL     1     -52.124  -5.675  30.551  0.00  0.00    -0.203 N 
ATOM     13  C   UNL     1     -52.522  -6.891  30.001  0.00  0.00    +0.263 C 
ATOM     14  O   UNL     1     -51.812  -7.885  29.872  0.00  0.00    -0.268 OA
ATOM     15  H   UNL     1     -52.755  -4.921  30.593  0.00  0.00    +0.000 HD
BRANCH  13  16
ATOM     16  C   UNL     1     -53.934  -6.966  29.525  0.00  0.00    +0.045 A 
ATOM     17  C   UNL     1     -54.724  -5.804  29.476  0.00  0.00    -0.008 A 
ATOM     18  C   UNL     1     -56.027  -5.881  28.979  0.00  0.00    +0.121 A 
ATOM     19  C   UNL     1     -56.553  -7.086  28.531  0.00  0.00    +0.021 A 
ATOM     20  C   UNL     1     -55.767  -8.228  28.573  0.00  0.00    +0.121 A 
ATOM     21  C   UNL     1     -54.464  -8.173  29.058  0.00  0.00    -0.008 A 
BRANCH  18  22
ATOM     22  O   UNL     1     -56.834  -4.783  28.900  0.00  0.00    -0.507 OA
ATOM     23  H   UNL     1     -57.146  -4.374  29.683  0.00  0.00    +0.000 HD
ENDBRANCH  18  22
BRANCH  20  24
ATOM     24  O   UNL     1     -56.207  -9.435  28.141  0.00  0.00    -0.507 OA
ATOM     25  H   UNL     1     -55.890  -9.788  27.333  0.00  0.00    +0.000 HD
ENDBRANCH  20  24
ENDBRANCH  13  16
ENDBRANCH  11  12
ENDBRANCH   9  10
BRANCH   7  26
ATOM     26  C   UNL     1     -46.040  -6.515  33.714  0.00  0.00    +0.048 C 
BRANCH  26  27
ATOM     27  C   UNL     1     -45.057  -6.419  32.573  0.00  0.00    -0.028 A 
ATOM     28  C   UNL     1     -45.082  -7.365  31.537  0.00  0.00    -0.055 A 
ATOM     29  C   UNL     1     -44.048  -7.419  30.601  0.00  0.00    -0.043 A 
ATOM     30  C   UNL     1     -43.005  -6.499  30.668  0.00  0.00    +0.041 A 
ATOM     31  C   UNL     1     -43.027  -5.480  31.615  0.00  0.00    -0.043 A 
ATOM     32  C   UNL     1     -44.052  -5.437  32.565  0.00  0.00    -0.055 A 
ATOM     33 CL   UNL     1     -41.655  -6.663  29.614  0.00  0.00    -0.084 Cl
ENDBRANCH  26  27
ENDBRANCH   7  26
TORSDOF 7
ENDMDL
