MODEL 1
REMARK VINA RESULT:    -9.164      0.000      0.000
REMARK INTER + INTRA:         -12.820
REMARK INTER:                 -12.111
REMARK INTRA:                  -0.709
REMARK UNBOUND:                -0.709
REMARK  Name = 27c.sdf
REMARK  6 active torsions:
REMARK  status: ('A' for Active; 'I' for Inactive)
REMARK    1  A    between atoms: N_7  and  C_10
REMARK    2  A    between atoms: C_9  and  C_18
REMARK    3  A    between atoms: C_10  and  C_11
REMARK    4  A    between atoms: N_19  and  N_20
REMARK    5  A    between atoms: C_21  and  C_23
REMARK    6  A    between atoms: C_26  and  N_29
REMARK                            x       y       z     vdW  Elec       q    Type
REMARK                         _______ _______ _______ _____ _____    ______ ____
ROOT
ATOM      1  C   UNL     1     -50.391  -0.428  35.206  0.00  0.00    -0.061 A 
ATOM      2  C   UNL     1     -49.057  -0.316  35.576  0.00  0.00    -0.060 A 
ATOM      3  C   UNL     1     -48.138  -1.325  35.272  0.00  0.00    -0.038 A 
ATOM      4  C   UNL     1     -48.594  -2.460  34.577  0.00  0.00    +0.050 A 
ATOM      5  C   UNL     1     -49.921  -2.566  34.145  0.00  0.00    +0.009 A 
ATOM      6  C   UNL     1     -50.830  -1.539  34.480  0.00  0.00    -0.052 A 
ATOM      7  N   UNL     1     -47.951  -3.625  34.198  0.00  0.00    -0.342 N 
ATOM      8  C   UNL     1     -48.812  -4.411  33.472  0.00  0.00    +0.015 A 
ATOM      9  C   UNL     1     -50.043  -3.784  33.410  0.00  0.00    +0.020 A 
ENDROOT
BRANCH   9  10
ATOM     10  C   UNL     1     -51.215  -4.277  32.716  0.00  0.00    +0.055 C 
ATOM     11  N   UNL     1     -51.079  -4.987  31.644  0.00  0.00    -0.187 NA
BRANCH  11  12
ATOM     12  N   UNL     1     -52.240  -5.404  31.046  0.00  0.00    -0.203 N 
ATOM     13  C   UNL     1     -52.194  -6.418  30.098  0.00  0.00    +0.263 C 
ATOM     14  O   UNL     1     -51.178  -7.005  29.740  0.00  0.00    -0.268 OA
ATOM     15  H   UNL     1     -53.100  -4.989  31.287  0.00  0.00    +0.000 HD
BRANCH  13  16
ATOM     16  C   UNL     1     -53.507  -6.831  29.520  0.00  0.00    +0.038 A 
ATOM     17  C   UNL     1     -53.697  -8.057  28.874  0.00  0.00    -0.048 A 
ATOM     18  C   UNL     1     -54.954  -8.384  28.347  0.00  0.00    -0.040 A 
ATOM     19  C   UNL     1     -56.022  -7.486  28.425  0.00  0.00    +0.025 A 
ATOM     20  C   UNL     1     -55.850  -6.305  29.150  0.00  0.00    -0.040 A 
ATOM     21  C   UNL     1     -54.598  -5.968  29.679  0.00  0.00    -0.048 A 
BRANCH  19  22
ATOM     22  N   UNL     1     -57.298  -7.869  27.998  0.00  0.00    -0.358 N 
ATOM     23  H   UNL     1     -58.024  -7.982  28.653  0.00  0.00    +0.000 HD
ATOM     24  H   UNL     1     -57.470  -8.023  27.041  0.00  0.00    +0.000 HD
ENDBRANCH  19  22
ENDBRANCH  13  16
ENDBRANCH  11  12
ENDBRANCH   9  10
BRANCH   7  25
ATOM     25  C   UNL     1     -46.607  -4.047  34.594  0.00  0.00    +0.048 C 
BRANCH  25  26
ATOM     26  C   UNL     1     -45.945  -4.880  33.524  0.00  0.00    -0.028 A 
ATOM     27  C   UNL     1     -45.948  -6.281  33.607  0.00  0.00    -0.055 A 
ATOM     28  C   UNL     1     -45.212  -7.047  32.702  0.00  0.00    -0.043 A 
ATOM     29  C   UNL     1     -44.485  -6.418  31.694  0.00  0.00    +0.041 A 
ATOM     30  C   UNL     1     -44.531  -5.035  31.551  0.00  0.00    -0.043 A 
ATOM     31  C   UNL     1     -45.262  -4.267  32.462  0.00  0.00    -0.055 A 
ATOM     32 CL   UNL     1     -43.499  -7.357  30.642  0.00  0.00    -0.084 Cl
ENDBRANCH  25  26
ENDBRANCH   7  25
TORSDOF 6
ENDMDL
MODEL 2
REMARK VINA RESULT:    -8.134      1.898      2.890
REMARK INTER + INTRA:         -11.457
REMARK INTER:                 -11.155
REMARK INTRA:                  -0.302
REMARK UNBOUND:                -0.709
REMARK  Name = 27c.sdf
REMARK  6 active torsions:
REMARK  status: ('A' for Active; 'I' for Inactive)
REMARK    1  A    between atoms: N_7  and  C_10
REMARK    2  A    between atoms: C_9  and  C_18
REMARK    3  A    between atoms: C_10  and  C_11
REMARK    4  A    between atoms: N_19  and  N_20
REMARK    5  A    between atoms: C_21  and  C_23
REMARK    6  A    between atoms: C_26  and  N_29
REMARK                            x       y       z     vdW  Elec       q    Type
REMARK                         _______ _______ _______ _____ _____    ______ ____
ROOT
ATOM      1  C   UNL     1     -53.348   0.306  36.530  0.00  0.00    -0.061 A 
ATOM      2  C   UNL     1     -52.175   0.936  36.926  0.00  0.00    -0.060 A 
ATOM      3  C   UNL     1     -50.950   0.617  36.332  0.00  0.00    -0.038 A 
ATOM      4  C   UNL     1     -50.930  -0.357  35.319  0.00  0.00    +0.050 A 
ATOM      5  C   UNL     1     -52.108  -0.963  34.866  0.00  0.00    +0.009 A 
ATOM      6  C   UNL     1     -53.329  -0.633  35.494  0.00  0.00    -0.052 A 
ATOM      7  N   UNL     1     -49.887  -0.918  34.603  0.00  0.00    -0.342 N 
ATOM      8  C   UNL     1     -50.386  -1.788  33.664  0.00  0.00    +0.015 A 
ATOM      9  C   UNL     1     -51.763  -1.836  33.790  0.00  0.00    +0.020 A 
ENDROOT
BRANCH   9  10
ATOM     10  C   UNL     1     -52.664  -2.619  32.970  0.00  0.00    +0.055 C 
ATOM     11  N   UNL     1     -52.210  -3.612  32.278  0.00  0.00    -0.187 NA
BRANCH  11  12
ATOM     12  N   UNL     1     -53.131  -4.292  31.522  0.00  0.00    -0.203 N 
ATOM     13  C   UNL     1     -52.701  -5.293  30.661  0.00  0.00    +0.263 C 
ATOM     14  O   UNL     1     -51.536  -5.648  30.515  0.00  0.00    -0.268 OA
ATOM     15  H   UNL     1     -54.088  -4.072  31.590  0.00  0.00    +0.000 HD
BRANCH  13  16
ATOM     16  C   UNL     1     -53.773  -6.002  29.900  0.00  0.00    +0.038 A 
ATOM     17  C   UNL     1     -53.549  -7.205  29.223  0.00  0.00    -0.048 A 
ATOM     18  C   UNL     1     -54.595  -7.818  28.521  0.00  0.00    -0.040 A 
ATOM     19  C   UNL     1     -55.861  -7.228  28.455  0.00  0.00    +0.025 A 
ATOM     20  C   UNL     1     -56.100  -6.076  29.206  0.00  0.00    -0.040 A 
ATOM     21  C   UNL     1     -55.061  -5.454  29.910  0.00  0.00    -0.048 A 
BRANCH  19  22
ATOM     22  N   UNL     1     -56.924  -7.904  27.847  0.00  0.00    -0.358 N 
ATOM     23  H   UNL     1     -57.814  -7.901  28.268  0.00  0.00    +0.000 HD
ATOM     24  H   UNL     1     -56.782  -8.382  26.999  0.00  0.00    +0.000 HD
ENDBRANCH  19  22
ENDBRANCH  13  16
ENDBRANCH  11  12
ENDBRANCH   9  10
BRANCH   7  25
ATOM     25  C   UNL     1     -48.458  -0.736  34.859  0.00  0.00    +0.048 C 
BRANCH  25  26
ATOM     26  C   UNL     1     -47.704  -2.040  34.778  0.00  0.00    -0.028 A 
ATOM     27  C   UNL     1     -46.380  -2.071  34.314  0.00  0.00    -0.055 A 
ATOM     28  C   UNL     1     -45.732  -3.289  34.097  0.00  0.00    -0.043 A 
ATOM     29  C   UNL     1     -46.397  -4.482  34.363  0.00  0.00    +0.041 A 
ATOM     30  C   UNL     1     -47.683  -4.470  34.895  0.00  0.00    -0.043 A 
ATOM     31  C   UNL     1     -48.335  -3.251  35.104  0.00  0.00    -0.055 A 
ATOM     32 CL   UNL     1     -45.634  -5.982  34.001  0.00  0.00    -0.084 Cl
ENDBRANCH  25  26
ENDBRANCH   7  25
TORSDOF 6
ENDMDL
MODEL 3
REMARK VINA RESULT:    -7.577      4.383      6.858
REMARK INTER + INTRA:         -10.722
REMARK INTER:                  -9.800
REMARK INTRA:                  -0.922
REMARK UNBOUND:                -0.709
REMARK  Name = 27c.sdf
REMARK  6 active torsions:
REMARK  status: ('A' for Active; 'I' for Inactive)
REMARK    1  A    between atoms: N_7  and  C_10
REMARK    2  A    between atoms: C_9  and  C_18
REMARK    3  A    between atoms: C_10  and  C_11
REMARK    4  A    between atoms: N_19  and  N_20
REMARK    5  A    between atoms: C_21  and  C_23
REMARK    6  A    between atoms: C_26  and  N_29
REMARK                            x       y       z     vdW  Elec       q    Type
REMARK                         _______ _______ _______ _____ _____    ______ ____
ROOT
ATOM      1  C   UNL     1     -48.611  -2.055  34.619  0.00  0.00    -0.061 A 
ATOM      2  C   UNL     1     -48.590  -0.965  35.480  0.00  0.00    -0.060 A 
ATOM      3  C   UNL     1     -49.773  -0.316  35.849  0.00  0.00    -0.038 A 
ATOM      4  C   UNL     1     -50.990  -0.792  35.329  0.00  0.00    +0.050 A 
ATOM      5  C   UNL     1     -51.038  -1.923  34.505  0.00  0.00    +0.009 A 
ATOM      6  C   UNL     1     -49.827  -2.550  34.137  0.00  0.00    -0.052 A 
ATOM      7  N   UNL     1     -52.287  -0.331  35.457  0.00  0.00    -0.342 N 
ATOM      8  C   UNL     1     -53.148  -1.186  34.812  0.00  0.00    +0.015 A 
ATOM      9  C   UNL     1     -52.410  -2.193  34.215  0.00  0.00    +0.020 A 
ENDROOT
BRANCH   9  10
ATOM     10  C   UNL     1     -52.946  -3.304  33.457  0.00  0.00    +0.055 C 
ATOM     11  N   UNL     1     -53.105  -3.198  32.179  0.00  0.00    -0.187 NA
BRANCH  11  12
ATOM     12  N   UNL     1     -53.627  -4.294  31.542  0.00  0.00    -0.203 N 
ATOM     13  C   UNL     1     -52.842  -4.998  30.638  0.00  0.00    +0.263 C 
ATOM     14  O   UNL     1     -51.679  -4.729  30.353  0.00  0.00    -0.268 OA
ATOM     15  H   UNL     1     -54.552  -4.580  31.724  0.00  0.00    +0.000 HD
BRANCH  13  16
ATOM     16  C   UNL     1     -53.479  -6.195  30.015  0.00  0.00    +0.038 A 
ATOM     17  C   UNL     1     -52.891  -7.463  30.039  0.00  0.00    -0.048 A 
ATOM     18  C   UNL     1     -53.537  -8.547  29.429  0.00  0.00    -0.040 A 
ATOM     19  C   UNL     1     -54.754  -8.376  28.762  0.00  0.00    +0.025 A 
ATOM     20  C   UNL     1     -55.378  -7.129  28.820  0.00  0.00    -0.040 A 
ATOM     21  C   UNL     1     -54.740  -6.039  29.425  0.00  0.00    -0.048 A 
BRANCH  19  22
ATOM     22  N   UNL     1     -55.443  -9.484  28.257  0.00  0.00    -0.358 N 
ATOM     23  H   UNL     1     -55.720 -10.209  28.863  0.00  0.00    +0.000 HD
ATOM     24  H   UNL     1     -55.651  -9.538  27.297  0.00  0.00    +0.000 HD
ENDBRANCH  19  22
ENDBRANCH  13  16
ENDBRANCH  11  12
ENDBRANCH   9  10
BRANCH   7  25
ATOM     25  C   UNL     1     -52.707   0.931  36.069  0.00  0.00    +0.048 C 
BRANCH  25  26
ATOM     26  C   UNL     1     -52.751   0.835  37.574  0.00  0.00    -0.028 A 
ATOM     27  C   UNL     1     -53.605  -0.083  38.205  0.00  0.00    -0.055 A 
ATOM     28  C   UNL     1     -53.757  -0.072  39.593  0.00  0.00    -0.043 A 
ATOM     29  C   UNL     1     -53.040   0.843  40.360  0.00  0.00    +0.041 A 
ATOM     30  C   UNL     1     -52.132   1.709  39.758  0.00  0.00    -0.043 A 
ATOM     31  C   UNL     1     -51.986   1.703  38.368  0.00  0.00    -0.055 A 
ATOM     32 CL   UNL     1     -53.304   0.923  42.059  0.00  0.00    -0.084 Cl
ENDBRANCH  25  26
ENDBRANCH   7  25
TORSDOF 6
ENDMDL
