MODEL 1
REMARK VINA RESULT:    -5.672      0.000      0.000
REMARK INTER + INTRA:          -6.196
REMARK INTER:                  -6.170
REMARK INTRA:                  -0.026
REMARK UNBOUND:                -0.026
REMARK  Name = 4.sdf
REMARK  2 active torsions:
REMARK  status: ('A' for Active; 'I' for Inactive)
REMARK    1  A    between atoms: C_9  and  C_10
REMARK    2  A    between atoms: C_10  and  O_11
REMARK                            x       y       z     vdW  Elec       q    Type
REMARK                         _______ _______ _______ _____ _____    ______ ____
ROOT
ATOM      1  C   UNL     1     -47.157  -1.623  34.999  0.00  0.00    -0.061 A 
ATOM      2  C   UNL     1     -47.513  -2.960  34.853  0.00  0.00    -0.060 A 
ATOM      3  C   UNL     1     -48.831  -3.378  35.059  0.00  0.00    -0.038 A 
ATOM      4  C   UNL     1     -49.774  -2.408  35.421  0.00  0.00    +0.047 A 
ATOM      5  C   UNL     1     -49.448  -1.059  35.588  0.00  0.00    +0.005 A 
ATOM      6  C   UNL     1     -48.112  -0.664  35.364  0.00  0.00    -0.052 A 
ATOM      7  N   UNL     1     -51.117  -2.538  35.682  0.00  0.00    -0.360 N 
ATOM      8  C   UNL     1     -51.648  -1.326  36.023  0.00  0.00    +0.008 A 
ATOM      9  C   UNL     1     -50.645  -0.375  35.985  0.00  0.00    +0.003 A 
ATOM     10  H   UNL     1     -51.622  -3.381  35.632  0.00  0.00    +0.000 HD
ENDROOT
BRANCH   9  11
ATOM     11  C   UNL     1     -50.797   1.068  36.328  0.00  0.00    +0.071 C 
BRANCH  11  12
ATOM     12  O   UNL     1     -51.741   1.718  35.482  0.00  0.00    -0.390 OA
ATOM     13  H   UNL     1     -52.018   1.111  34.779  0.00  0.00    +0.000 HD
ENDBRANCH  11  12
ENDBRANCH   9  11
TORSDOF 2
ENDMDL
MODEL 2
REMARK VINA RESULT:    -5.497      3.586      5.321
REMARK INTER + INTRA:          -6.005
REMARK INTER:                  -5.979
REMARK INTRA:                  -0.026
REMARK UNBOUND:                -0.026
REMARK  Name = 4.sdf
REMARK  2 active torsions:
REMARK  status: ('A' for Active; 'I' for Inactive)
REMARK    1  A    between atoms: C_9  and  C_10
REMARK    2  A    between atoms: C_10  and  O_11
REMARK                            x       y       z     vdW  Elec       q    Type
REMARK                         _______ _______ _______ _____ _____    ______ ____
ROOT
ATOM      1  C   UNL     1     -49.999  -2.275  35.490  0.00  0.00    -0.061 A 
ATOM      2  C   UNL     1     -49.488  -0.983  35.581  0.00  0.00    -0.060 A 
ATOM      3  C   UNL     1     -48.159  -0.712  35.245  0.00  0.00    -0.038 A 
ATOM      4  C   UNL     1     -47.362  -1.782  34.821  0.00  0.00    +0.047 A 
ATOM      5  C   UNL     1     -47.839  -3.092  34.729  0.00  0.00    +0.005 A 
ATOM      6  C   UNL     1     -49.188  -3.336  35.065  0.00  0.00    -0.052 A 
ATOM      7  N   UNL     1     -46.042  -1.801  34.437  0.00  0.00    -0.360 N 
ATOM      8  C   UNL     1     -45.664  -3.075  34.121  0.00  0.00    +0.008 A 
ATOM      9  C   UNL     1     -46.747  -3.916  34.295  0.00  0.00    +0.003 A 
ATOM     10  H   UNL     1     -45.456  -1.011  34.396  0.00  0.00    +0.000 HD
ENDROOT
BRANCH   9  11
ATOM     11  C   UNL     1     -46.746  -5.394  34.094  0.00  0.00    +0.071 C 
BRANCH  11  12
ATOM     12  O   UNL     1     -45.427  -5.931  34.109  0.00  0.00    -0.390 OA
ATOM     13  H   UNL     1     -45.452  -6.857  33.822  0.00  0.00    +0.000 HD
ENDBRANCH  11  12
ENDBRANCH   9  11
TORSDOF 2
ENDMDL
MODEL 3
REMARK VINA RESULT:    -5.469      2.141      3.348
REMARK INTER + INTRA:          -5.974
REMARK INTER:                  -5.948
REMARK INTRA:                  -0.026
REMARK UNBOUND:                -0.026
REMARK  Name = 4.sdf
REMARK  2 active torsions:
REMARK  status: ('A' for Active; 'I' for Inactive)
REMARK    1  A    between atoms: C_9  and  C_10
REMARK    2  A    between atoms: C_10  and  O_11
REMARK                            x       y       z     vdW  Elec       q    Type
REMARK                         _______ _______ _______ _____ _____    ______ ____
ROOT
ATOM      1  C   UNL     1     -47.445  -5.109  34.372  0.00  0.00    -0.061 A 
ATOM      2  C   UNL     1     -46.137  -4.822  33.992  0.00  0.00    -0.060 A 
ATOM      3  C   UNL     1     -45.654  -3.511  34.019  0.00  0.00    -0.038 A 
ATOM      4  C   UNL     1     -46.530  -2.501  34.435  0.00  0.00    +0.047 A 
ATOM      5  C   UNL     1     -47.852  -2.753  34.812  0.00  0.00    +0.005 A 
ATOM      6  C   UNL     1     -48.310  -4.087  34.785  0.00  0.00    -0.052 A 
ATOM      7  N   UNL     1     -46.323  -1.148  34.553  0.00  0.00    -0.360 N 
ATOM      8  C   UNL     1     -47.468  -0.533  34.976  0.00  0.00    +0.008 A 
ATOM      9  C   UNL     1     -48.450  -1.491  35.144  0.00  0.00    +0.003 A 
ATOM     10  H   UNL     1     -45.474  -0.688  34.361  0.00  0.00    +0.000 HD
ENDROOT
BRANCH   9  11
ATOM     11  C   UNL     1     -49.859  -1.234  35.558  0.00  0.00    +0.071 C 
BRANCH  11  12
ATOM     12  O   UNL     1     -50.238   0.121  35.340  0.00  0.00    -0.390 OA
ATOM     13  H   UNL     1     -50.493   0.526  36.184  0.00  0.00    +0.000 HD
ENDBRANCH  11  12
ENDBRANCH   9  11
TORSDOF 2
ENDMDL
