MODEL 1
REMARK VINA RESULT:    -6.995      0.000      0.000
REMARK INTER + INTRA:          -8.993
REMARK INTER:                  -8.426
REMARK INTRA:                  -0.567
REMARK UNBOUND:                -0.567
REMARK  Name = 4a.pdb
REMARK  4 active torsions:
REMARK  status: ('A' for Active; 'I' for Inactive)
REMARK    1  A    between atoms: N_7  and  C_11
REMARK    2  A    between atoms: C_9  and  C_10
REMARK    3  A    between atoms: C_10  and  O_18
REMARK    4  A    between atoms: C_11  and  C_12
REMARK                            x       y       z     vdW  Elec       q    Type
REMARK                         _______ _______ _______ _____ _____    ______ ____
ROOT
ATOM      1  C   UNL     1     -52.169  -2.414  32.590  0.00  0.00    -0.061 A 
ATOM      2  C   UNL     1     -52.000  -3.761  32.295  0.00  0.00    -0.060 A 
ATOM      3  C   UNL     1     -50.956  -4.493  32.864  0.00  0.00    -0.038 A 
ATOM      4  C   UNL     1     -50.072  -3.834  33.735  0.00  0.00    +0.050 A 
ATOM      5  C   UNL     1     -50.226  -2.480  34.052  0.00  0.00    +0.005 A 
ATOM      6  C   UNL     1     -51.294  -1.765  33.468  0.00  0.00    -0.052 A 
ATOM      7  N   UNL     1     -48.956  -4.284  34.414  0.00  0.00    -0.342 N 
ATOM      8  C   UNL     1     -48.425  -3.264  35.165  0.00  0.00    +0.011 A 
ATOM      9  C   UNL     1     -49.182  -2.124  34.966  0.00  0.00    +0.003 A 
ENDROOT
BRANCH   9  10
ATOM     10  C   UNL     1     -48.951  -0.793  35.594  0.00  0.00    +0.071 C 
BRANCH  10  11
ATOM     11  O   UNL     1     -48.013  -0.023  34.847  0.00  0.00    -0.390 OA
ATOM     12  H   UNL     1     -47.764  -0.506  34.044  0.00  0.00    +0.000 HD
ENDBRANCH  10  11
ENDBRANCH   9  10
BRANCH   7  13
ATOM     13  C   UNL     1     -48.418  -5.641  34.381  0.00  0.00    +0.048 C 
BRANCH  13  14
ATOM     14  C   UNL     1     -47.199  -5.722  33.494  0.00  0.00    -0.028 A 
ATOM     15  C   UNL     1     -44.779  -5.732  33.233  0.00  0.00    -0.047 A 
ATOM     16  C   UNL     1     -44.927  -6.071  31.890  0.00  0.00    +0.018 A 
ATOM     17  C   UNL     1     -46.198  -6.209  31.333  0.00  0.00    -0.047 A 
ATOM     18  C   UNL     1     -47.330  -6.034  32.132  0.00  0.00    -0.056 A 
ATOM     19 BR   UNL     1     -43.396  -6.378  30.827  0.00  0.00    -0.050 Br
ATOM     20  C   UNL     1     -45.912  -5.550  34.028  0.00  0.00    -0.056 A 
ENDBRANCH  13  14
ENDBRANCH   7  13
TORSDOF 4
ENDMDL
MODEL 2
REMARK VINA RESULT:    -6.983      1.504      2.827
REMARK INTER + INTRA:          -8.979
REMARK INTER:                  -8.513
REMARK INTRA:                  -0.466
REMARK UNBOUND:                -0.567
REMARK  Name = 4a.pdb
REMARK  4 active torsions:
REMARK  status: ('A' for Active; 'I' for Inactive)
REMARK    1  A    between atoms: N_7  and  C_11
REMARK    2  A    between atoms: C_9  and  C_10
REMARK    3  A    between atoms: C_10  and  O_18
REMARK    4  A    between atoms: C_11  and  C_12
REMARK                            x       y       z     vdW  Elec       q    Type
REMARK                         _______ _______ _______ _____ _____    ______ ____
ROOT
ATOM      1  C   UNL     1     -48.271  -0.418  34.971  0.00  0.00    -0.061 A 
ATOM      2  C   UNL     1     -47.261  -1.350  35.175  0.00  0.00    -0.060 A 
ATOM      3  C   UNL     1     -47.491  -2.712  34.975  0.00  0.00    -0.038 A 
ATOM      4  C   UNL     1     -48.774  -3.122  34.572  0.00  0.00    +0.050 A 
ATOM      5  C   UNL     1     -49.805  -2.203  34.354  0.00  0.00    +0.005 A 
ATOM      6  C   UNL     1     -49.543  -0.830  34.558  0.00  0.00    -0.052 A 
ATOM      7  N   UNL     1     -49.293  -4.379  34.324  0.00  0.00    -0.342 N 
ATOM      8  C   UNL     1     -50.605  -4.271  33.934  0.00  0.00    +0.011 A 
ATOM      9  C   UNL     1     -50.964  -2.936  33.942  0.00  0.00    +0.003 A 
ENDROOT
BRANCH   9  10
ATOM     10  C   UNL     1     -52.299  -2.380  33.583  0.00  0.00    +0.071 C 
BRANCH  10  11
ATOM     11  O   UNL     1     -52.427  -2.205  32.175  0.00  0.00    -0.390 OA
ATOM     12  H   UNL     1     -51.651  -1.731  31.836  0.00  0.00    +0.000 HD
ENDBRANCH  10  11
ENDBRANCH   9  10
BRANCH   7  13
ATOM     13  C   UNL     1     -48.571  -5.643  34.425  0.00  0.00    +0.048 C 
BRANCH  13  14
ATOM     14  C   UNL     1     -47.362  -5.654  33.519  0.00  0.00    -0.028 A 
ATOM     15  C   UNL     1     -44.961  -5.905  33.210  0.00  0.00    -0.047 A 
ATOM     16  C   UNL     1     -45.138  -5.876  31.828  0.00  0.00    +0.018 A 
ATOM     17  C   UNL     1     -46.410  -5.708  31.283  0.00  0.00    -0.047 A 
ATOM     18  C   UNL     1     -47.518  -5.597  32.126  0.00  0.00    -0.056 A 
ATOM     19 BR   UNL     1     -43.648  -6.098  30.689  0.00  0.00    -0.050 Br
ATOM     20  C   UNL     1     -46.070  -5.785  34.050  0.00  0.00    -0.056 A 
ENDBRANCH  13  14
ENDBRANCH   7  13
TORSDOF 4
ENDMDL
MODEL 3
REMARK VINA RESULT:    -6.641      3.640      6.476
REMARK INTER + INTRA:          -8.567
REMARK INTER:                  -8.076
REMARK INTRA:                  -0.491
REMARK UNBOUND:                -0.567
REMARK  Name = 4a.pdb
REMARK  4 active torsions:
REMARK  status: ('A' for Active; 'I' for Inactive)
REMARK    1  A    between atoms: N_7  and  C_11
REMARK    2  A    between atoms: C_9  and  C_10
REMARK    3  A    between atoms: C_10  and  O_18
REMARK    4  A    between atoms: C_11  and  C_12
REMARK                            x       y       z     vdW  Elec       q    Type
REMARK                         _______ _______ _______ _____ _____    ______ ____
ROOT
ATOM      1  C   UNL     1     -44.751  -5.870  31.790  0.00  0.00    -0.061 A 
ATOM      2  C   UNL     1     -44.657  -5.641  33.157  0.00  0.00    -0.060 A 
ATOM      3  C   UNL     1     -45.785  -5.303  33.906  0.00  0.00    -0.038 A 
ATOM      4  C   UNL     1     -47.019  -5.187  33.244  0.00  0.00    +0.050 A 
ATOM      5  C   UNL     1     -47.141  -5.417  31.870  0.00  0.00    +0.005 A 
ATOM      6  C   UNL     1     -45.984  -5.765  31.137  0.00  0.00    -0.052 A 
ATOM      7  N   UNL     1     -48.276  -4.848  33.709  0.00  0.00    -0.342 N 
ATOM      8  C   UNL     1     -49.180  -4.887  32.677  0.00  0.00    +0.011 A 
ATOM      9  C   UNL     1     -48.516  -5.234  31.515  0.00  0.00    +0.003 A 
ENDROOT
BRANCH   9  10
ATOM     10  C   UNL     1     -49.125  -5.389  30.164  0.00  0.00    +0.071 C 
BRANCH  10  11
ATOM     11  O   UNL     1     -48.846  -6.673  29.613  0.00  0.00    -0.390 OA
ATOM     12  H   UNL     1     -48.056  -7.042  30.038  0.00  0.00    +0.000 HD
ENDBRANCH  10  11
ENDBRANCH   9  10
BRANCH   7  13
ATOM     13  C   UNL     1     -48.623  -4.524  35.090  0.00  0.00    +0.048 C 
BRANCH  13  14
ATOM     14  C   UNL     1     -49.242  -3.150  35.187  0.00  0.00    -0.028 A 
ATOM     15  C   UNL     1     -51.188  -1.737  35.562  0.00  0.00    -0.047 A 
ATOM     16  C   UNL     1     -50.367  -0.612  35.570  0.00  0.00    +0.018 A 
ATOM     17  C   UNL     1     -48.995  -0.739  35.359  0.00  0.00    -0.047 A 
ATOM     18  C   UNL     1     -48.435  -2.003  35.168  0.00  0.00    -0.056 A 
ATOM     19 BR   UNL     1     -51.115   1.091  35.900  0.00  0.00    -0.050 Br
ATOM     20  C   UNL     1     -50.627  -3.000  35.363  0.00  0.00    -0.056 A 
ENDBRANCH  13  14
ENDBRANCH   7  13
TORSDOF 4
ENDMDL
