MODEL 1
REMARK VINA RESULT:    -6.909      0.000      0.000
REMARK INTER + INTRA:          -8.762
REMARK INTER:                  -8.323
REMARK INTRA:                  -0.439
REMARK UNBOUND:                -0.439
REMARK  Name = 4b.sdf
REMARK  4 active torsions:
REMARK  status: ('A' for Active; 'I' for Inactive)
REMARK    1  A    between atoms: N_7  and  C_11
REMARK    2  A    between atoms: C_9  and  C_10
REMARK    3  A    between atoms: C_10  and  O_18
REMARK    4  A    between atoms: C_11  and  C_12
REMARK                            x       y       z     vdW  Elec       q    Type
REMARK                         _______ _______ _______ _____ _____    ______ ____
ROOT
ATOM      1  C   UNL     1     -49.189  -0.827  35.422  0.00  0.00    -0.061 A 
ATOM      2  C   UNL     1     -47.817  -0.701  35.222  0.00  0.00    -0.060 A 
ATOM      3  C   UNL     1     -47.035  -1.798  34.837  0.00  0.00    -0.038 A 
ATOM      4  C   UNL     1     -47.662  -3.047  34.680  0.00  0.00    +0.050 A 
ATOM      5  C   UNL     1     -49.051  -3.173  34.808  0.00  0.00    +0.005 A 
ATOM      6  C   UNL     1     -49.816  -2.050  35.195  0.00  0.00    -0.052 A 
ATOM      7  N   UNL     1     -47.171  -4.316  34.416  0.00  0.00    -0.342 N 
ATOM      8  C   UNL     1     -48.223  -5.192  34.282  0.00  0.00    +0.011 A 
ATOM      9  C   UNL     1     -49.403  -4.523  34.492  0.00  0.00    +0.003 A 
ENDROOT
BRANCH   9  10
ATOM     10  C   UNL     1     -50.785  -5.082  34.458  0.00  0.00    +0.071 C 
BRANCH  10  11
ATOM     11  O   UNL     1     -50.887  -6.295  35.197  0.00  0.00    -0.390 OA
ATOM     12  H   UNL     1     -50.438  -7.006  34.713  0.00  0.00    +0.000 HD
ENDBRANCH  10  11
ENDBRANCH   9  10
BRANCH   7  13
ATOM     13  C   UNL     1     -45.769  -4.748  34.439  0.00  0.00    +0.048 C 
BRANCH  13  14
ATOM     14  C   UNL     1     -45.343  -5.368  33.132  0.00  0.00    -0.025 A 
ATOM     15  C   UNL     1     -45.321  -6.757  32.981  0.00  0.00    -0.039 A 
ATOM     16  C   UNL     1     -44.803  -7.295  31.813  0.00  0.00    +0.028 A 
ATOM     17  N   UNL     1     -44.351  -6.554  30.781  0.00  0.00    -0.263 NA
ATOM     18  C   UNL     1     -44.427  -5.214  30.919  0.00  0.00    +0.028 A 
ATOM     19  C   UNL     1     -44.913  -4.582  32.055  0.00  0.00    -0.039 A 
ENDBRANCH  13  14
ENDBRANCH   7  13
TORSDOF 4
ENDMDL
MODEL 2
REMARK VINA RESULT:    -6.793      2.364      5.596
REMARK INTER + INTRA:          -8.621
REMARK INTER:                  -8.026
REMARK INTRA:                  -0.596
REMARK UNBOUND:                -0.439
REMARK  Name = 4b.sdf
REMARK  4 active torsions:
REMARK  status: ('A' for Active; 'I' for Inactive)
REMARK    1  A    between atoms: N_7  and  C_11
REMARK    2  A    between atoms: C_9  and  C_10
REMARK    3  A    between atoms: C_10  and  O_18
REMARK    4  A    between atoms: C_11  and  C_12
REMARK                            x       y       z     vdW  Elec       q    Type
REMARK                         _______ _______ _______ _____ _____    ______ ____
ROOT
ATOM      1  C   UNL     1     -44.724  -6.049  31.861  0.00  0.00    -0.061 A 
ATOM      2  C   UNL     1     -44.669  -5.966  33.249  0.00  0.00    -0.060 A 
ATOM      3  C   UNL     1     -45.821  -5.724  34.008  0.00  0.00    -0.038 A 
ATOM      4  C   UNL     1     -47.042  -5.540  33.335  0.00  0.00    +0.050 A 
ATOM      5  C   UNL     1     -47.125  -5.692  31.945  0.00  0.00    +0.005 A 
ATOM      6  C   UNL     1     -45.947  -5.937  31.204  0.00  0.00    -0.052 A 
ATOM      7  N   UNL     1     -48.310  -5.191  33.773  0.00  0.00    -0.342 N 
ATOM      8  C   UNL     1     -49.182  -5.221  32.709  0.00  0.00    +0.011 A 
ATOM      9  C   UNL     1     -48.496  -5.550  31.566  0.00  0.00    +0.003 A 
ENDROOT
BRANCH   9  10
ATOM     10  C   UNL     1     -49.041  -5.684  30.185  0.00  0.00    +0.071 C 
BRANCH  10  11
ATOM     11  O   UNL     1     -48.923  -7.014  29.692  0.00  0.00    -0.390 OA
ATOM     12  H   UNL     1     -48.379  -7.537  30.302  0.00  0.00    +0.000 HD
ENDBRANCH  10  11
ENDBRANCH   9  10
BRANCH   7  13
ATOM     13  C   UNL     1     -48.685  -4.690  35.100  0.00  0.00    +0.048 C 
BRANCH  13  14
ATOM     14  C   UNL     1     -48.687  -3.183  35.159  0.00  0.00    -0.025 A 
ATOM     15  C   UNL     1     -47.497  -2.468  35.010  0.00  0.00    -0.039 A 
ATOM     16  C   UNL     1     -47.513  -1.094  35.198  0.00  0.00    +0.028 A 
ATOM     17  N   UNL     1     -48.628  -0.388  35.479  0.00  0.00    -0.263 NA
ATOM     18  C   UNL     1     -49.779  -1.086  35.570  0.00  0.00    +0.028 A 
ATOM     19  C   UNL     1     -49.861  -2.463  35.414  0.00  0.00    -0.039 A 
ENDBRANCH  13  14
ENDBRANCH   7  13
TORSDOF 4
ENDMDL
MODEL 3
REMARK VINA RESULT:    -6.583      2.625      4.841
REMARK INTER + INTRA:          -8.369
REMARK INTER:                  -7.759
REMARK INTRA:                  -0.610
REMARK UNBOUND:                -0.439
REMARK  Name = 4b.sdf
REMARK  4 active torsions:
REMARK  status: ('A' for Active; 'I' for Inactive)
REMARK    1  A    between atoms: N_7  and  C_11
REMARK    2  A    between atoms: C_9  and  C_10
REMARK    3  A    between atoms: C_10  and  O_18
REMARK    4  A    between atoms: C_11  and  C_12
REMARK                            x       y       z     vdW  Elec       q    Type
REMARK                         _______ _______ _______ _____ _____    ______ ____
ROOT
ATOM      1  C   UNL     1     -47.891  -0.700  35.201  0.00  0.00    -0.061 A 
ATOM      2  C   UNL     1     -49.242  -0.953  35.415  0.00  0.00    -0.060 A 
ATOM      3  C   UNL     1     -49.772  -2.242  35.274  0.00  0.00    -0.038 A 
ATOM      4  C   UNL     1     -48.910  -3.283  34.884  0.00  0.00    +0.050 A 
ATOM      5  C   UNL     1     -47.536  -3.057  34.735  0.00  0.00    +0.005 A 
ATOM      6  C   UNL     1     -47.028  -1.747  34.884  0.00  0.00    -0.052 A 
ATOM      7  N   UNL     1     -49.131  -4.613  34.564  0.00  0.00    -0.342 N 
ATOM      8  C   UNL     1     -47.925  -5.229  34.320  0.00  0.00    +0.011 A 
ATOM      9  C   UNL     1     -46.913  -4.310  34.439  0.00  0.00    +0.003 A 
ENDROOT
BRANCH   9  10
ATOM     10  C   UNL     1     -45.451  -4.537  34.248  0.00  0.00    +0.071 C 
BRANCH  10  11
ATOM     11  O   UNL     1     -45.124  -5.922  34.243  0.00  0.00    -0.390 OA
ATOM     12  H   UNL     1     -44.604  -6.134  35.035  0.00  0.00    +0.000 HD
ENDBRANCH  10  11
ENDBRANCH   9  10
BRANCH   7  13
ATOM     13  C   UNL     1     -50.424  -5.268  34.334  0.00  0.00    +0.048 C 
BRANCH  13  14
ATOM     14  C   UNL     1     -51.007  -4.918  32.987  0.00  0.00    -0.025 A 
ATOM     15  C   UNL     1     -52.161  -4.135  32.898  0.00  0.00    -0.039 A 
ATOM     16  C   UNL     1     -52.742  -3.940  31.654  0.00  0.00    +0.028 A 
ATOM     17  N   UNL     1     -52.236  -4.429  30.504  0.00  0.00    -0.263 NA
ATOM     18  C   UNL     1     -51.093  -5.140  30.599  0.00  0.00    +0.028 A 
ATOM     19  C   UNL     1     -50.446  -5.402  31.799  0.00  0.00    -0.039 A 
ENDBRANCH  13  14
ENDBRANCH   7  13
TORSDOF 4
ENDMDL
