MODEL 1
REMARK VINA RESULT:    -6.003      0.000      0.000
REMARK INTER + INTRA:          -7.308
REMARK INTER:                  -7.056
REMARK INTRA:                  -0.252
REMARK UNBOUND:                -0.252
REMARK  Name = 7.sdf
REMARK  4 active torsions:
REMARK  status: ('A' for Active; 'I' for Inactive)
REMARK    1  A    between atoms: C_9  and  C_10
REMARK    2  A    between atoms: C_10  and  C_11
REMARK    3  A    between atoms: C_11  and  O_13
REMARK    4  A    between atoms: O_13  and  C_14
REMARK                            x       y       z     vdW  Elec       q    Type
REMARK                         _______ _______ _______ _____ _____    ______ ____
ROOT
ATOM      1  C   UNL     1     -49.973  -2.174  35.550  0.00  0.00    -0.061 A 
ATOM      2  C   UNL     1     -49.460  -0.879  35.553  0.00  0.00    -0.060 A 
ATOM      3  C   UNL     1     -48.132  -0.633  35.193  0.00  0.00    -0.038 A 
ATOM      4  C   UNL     1     -47.345  -1.730  34.821  0.00  0.00    +0.047 A 
ATOM      5  C   UNL     1     -47.831  -3.038  34.790  0.00  0.00    +0.003 A 
ATOM      6  C   UNL     1     -49.172  -3.259  35.172  0.00  0.00    -0.052 A 
ATOM      7  N   UNL     1     -46.026  -1.779  34.435  0.00  0.00    -0.360 N 
ATOM      8  C   UNL     1     -45.672  -3.062  34.120  0.00  0.00    +0.006 A 
ATOM      9  C   UNL     1     -46.768  -3.881  34.324  0.00  0.00    -0.012 A 
ATOM     10  H   UNL     1     -45.424  -1.001  34.390  0.00  0.00    +0.000 HD
ENDROOT
BRANCH   9  11
ATOM     11  C   UNL     1     -46.831  -5.351  34.051  0.00  0.00    +0.072 C 
BRANCH  11  12
ATOM     12  C   UNL     1     -46.383  -5.748  32.659  0.00  0.00    +0.311 C 
ATOM     13  O   UNL     1     -46.913  -5.444  31.600  0.00  0.00    -0.250 OA
BRANCH  12  14
ATOM     14  O   UNL     1     -45.270  -6.540  32.770  0.00  0.00    -0.468 OA
ATOM     15  C   UNL     1     -44.084  -6.001  32.181  0.00  0.00    +0.082 C 
ENDBRANCH  12  14
ENDBRANCH  11  12
ENDBRANCH   9  11
TORSDOF 3
ENDMDL
MODEL 2
REMARK VINA RESULT:    -5.952      1.658      2.338
REMARK INTER + INTRA:          -7.248
REMARK INTER:                  -6.964
REMARK INTRA:                  -0.284
REMARK UNBOUND:                -0.252
REMARK  Name = 7.sdf
REMARK  4 active torsions:
REMARK  status: ('A' for Active; 'I' for Inactive)
REMARK    1  A    between atoms: C_9  and  C_10
REMARK    2  A    between atoms: C_10  and  C_11
REMARK    3  A    between atoms: C_11  and  O_13
REMARK    4  A    between atoms: O_13  and  C_14
REMARK                            x       y       z     vdW  Elec       q    Type
REMARK                         _______ _______ _______ _____ _____    ______ ____
ROOT
ATOM      1  C   UNL     1     -47.772  -0.710  35.169  0.00  0.00    -0.061 A 
ATOM      2  C   UNL     1     -49.113  -0.695  35.547  0.00  0.00    -0.060 A 
ATOM      3  C   UNL     1     -49.867  -1.872  35.559  0.00  0.00    -0.038 A 
ATOM      4  C   UNL     1     -49.225  -3.060  35.191  0.00  0.00    +0.047 A 
ATOM      5  C   UNL     1     -47.880  -3.114  34.825  0.00  0.00    +0.003 A 
ATOM      6  C   UNL     1     -47.145  -1.910  34.807  0.00  0.00    -0.052 A 
ATOM      7  N   UNL     1     -49.719  -4.341  35.108  0.00  0.00    -0.360 N 
ATOM      8  C   UNL     1     -48.727  -5.209  34.744  0.00  0.00    +0.006 A 
ATOM      9  C   UNL     1     -47.561  -4.488  34.559  0.00  0.00    -0.012 A 
ATOM     10  H   UNL     1     -50.654  -4.596  35.286  0.00  0.00    +0.000 HD
ENDROOT
BRANCH   9  11
ATOM     11  C   UNL     1     -46.222  -5.057  34.207  0.00  0.00    +0.072 C 
BRANCH  11  12
ATOM     12  C   UNL     1     -45.713  -4.654  32.839  0.00  0.00    +0.311 C 
ATOM     13  O   UNL     1     -44.969  -3.720  32.575  0.00  0.00    -0.250 OA
BRANCH  12  14
ATOM     14  O   UNL     1     -46.244  -5.509  31.909  0.00  0.00    -0.468 OA
ATOM     15  C   UNL     1     -45.981  -6.894  32.143  0.00  0.00    +0.082 C 
ENDBRANCH  12  14
ENDBRANCH  11  12
ENDBRANCH   9  11
TORSDOF 3
ENDMDL
MODEL 3
REMARK VINA RESULT:    -5.945      1.120      1.798
REMARK INTER + INTRA:          -7.240
REMARK INTER:                  -6.917
REMARK INTRA:                  -0.322
REMARK UNBOUND:                -0.252
REMARK  Name = 7.sdf
REMARK  4 active torsions:
REMARK  status: ('A' for Active; 'I' for Inactive)
REMARK    1  A    between atoms: C_9  and  C_10
REMARK    2  A    between atoms: C_10  and  C_11
REMARK    3  A    between atoms: C_11  and  O_13
REMARK    4  A    between atoms: O_13  and  C_14
REMARK                            x       y       z     vdW  Elec       q    Type
REMARK                         _______ _______ _______ _____ _____    ______ ____
ROOT
ATOM      1  C   UNL     1     -49.889  -1.994  35.558  0.00  0.00    -0.061 A 
ATOM      2  C   UNL     1     -49.302  -0.731  35.615  0.00  0.00    -0.060 A 
ATOM      3  C   UNL     1     -47.963  -0.547  35.263  0.00  0.00    -0.038 A 
ATOM      4  C   UNL     1     -47.240  -1.670  34.842  0.00  0.00    +0.047 A 
ATOM      5  C   UNL     1     -47.801  -2.945  34.756  0.00  0.00    +0.003 A 
ATOM      6  C   UNL     1     -49.152  -3.106  35.131  0.00  0.00    -0.052 A 
ATOM      7  N   UNL     1     -45.927  -1.778  34.449  0.00  0.00    -0.360 N 
ATOM      8  C   UNL     1     -45.647  -3.064  34.079  0.00  0.00    +0.006 A 
ATOM      9  C   UNL     1     -46.788  -3.827  34.250  0.00  0.00    -0.012 A 
ATOM     10  H   UNL     1     -45.280  -1.035  34.436  0.00  0.00    +0.000 HD
ENDROOT
BRANCH   9  11
ATOM     11  C   UNL     1     -46.935  -5.278  33.914  0.00  0.00    +0.072 C 
BRANCH  11  12
ATOM     12  C   UNL     1     -47.397  -5.547  32.496  0.00  0.00    +0.311 C 
ATOM     13  O   UNL     1     -46.722  -5.489  31.478  0.00  0.00    -0.250 OA
BRANCH  12  14
ATOM     14  O   UNL     1     -48.732  -5.855  32.525  0.00  0.00    -0.468 OA
ATOM     15  C   UNL     1     -49.572  -4.966  31.785  0.00  0.00    +0.082 C 
ENDBRANCH  12  14
ENDBRANCH  11  12
ENDBRANCH   9  11
TORSDOF 3
ENDMDL
