MODEL 1
REMARK VINA RESULT:    -7.035      0.000      0.000
REMARK INTER + INTRA:         -10.038
REMARK INTER:                  -9.091
REMARK INTRA:                  -0.948
REMARK UNBOUND:                -0.948
REMARK  Name = 7a.sdf
REMARK  6 active torsions:
REMARK  status: ('A' for Active; 'I' for Inactive)
REMARK    1  A    between atoms: N_7  and  C_12
REMARK    2  A    between atoms: C_9  and  C_10
REMARK    3  A    between atoms: C_10  and  C_11
REMARK    4  A    between atoms: C_11  and  O_21
REMARK    5  A    between atoms: C_12  and  C_13
REMARK    6  A    between atoms: O_21  and  C_22
REMARK                            x       y       z     vdW  Elec       q    Type
REMARK                         _______ _______ _______ _____ _____    ______ ____
ROOT
ATOM      1  C   UNL     1     -47.953  -0.423  35.046  0.00  0.00    -0.061 A 
ATOM      2  C   UNL     1     -46.924  -1.348  35.181  0.00  0.00    -0.060 A 
ATOM      3  C   UNL     1     -47.121  -2.700  34.857  0.00  0.00    -0.038 A 
ATOM      4  C   UNL     1     -48.396  -3.110  34.423  0.00  0.00    +0.050 A 
ATOM      5  C   UNL     1     -49.426  -2.177  34.224  0.00  0.00    +0.004 A 
ATOM      6  C   UNL     1     -49.193  -0.821  34.546  0.00  0.00    -0.052 A 
ATOM      7  N   UNL     1     -48.929  -4.358  34.133  0.00  0.00    -0.342 N 
ATOM      8  C   UNL     1     -50.210  -4.210  33.657  0.00  0.00    +0.010 A 
ATOM      9  C   UNL     1     -50.551  -2.873  33.681  0.00  0.00    -0.012 A 
ENDROOT
BRANCH   9  10
ATOM     10  C   UNL     1     -51.847  -2.283  33.216  0.00  0.00    +0.072 C 
BRANCH  10  11
ATOM     11  C   UNL     1     -52.916  -2.221  34.289  0.00  0.00    +0.311 C 
ATOM     12  O   UNL     1     -53.686  -3.127  34.597  0.00  0.00    -0.250 OA
BRANCH  11  13
ATOM     13  O   UNL     1     -52.909  -0.986  34.873  0.00  0.00    -0.468 OA
ATOM     14  C   UNL     1     -52.547  -1.011  36.259  0.00  0.00    +0.082 C 
ENDBRANCH  11  13
ENDBRANCH  10  11
ENDBRANCH   9  10
BRANCH   7  15
ATOM     15  C   UNL     1     -48.337  -5.673  34.400  0.00  0.00    +0.048 C 
BRANCH  15  16
ATOM     16  C   UNL     1     -47.186  -5.980  33.471  0.00  0.00    -0.028 A 
ATOM     17  C   UNL     1     -45.873  -5.971  33.958  0.00  0.00    -0.056 A 
ATOM     18  C   UNL     1     -44.792  -6.037  33.079  0.00  0.00    -0.047 A 
ATOM     19  C   UNL     1     -45.021  -6.151  31.710  0.00  0.00    +0.018 A 
ATOM     20  C   UNL     1     -46.318  -6.277  31.219  0.00  0.00    -0.047 A 
ATOM     21  C   UNL     1     -47.400  -6.195  32.099  0.00  0.00    -0.056 A 
ATOM     22 BR   UNL     1     -43.567  -6.048  30.507  0.00  0.00    -0.050 Br
ENDBRANCH  15  16
ENDBRANCH   7  15
TORSDOF 5
ENDMDL
MODEL 2
REMARK VINA RESULT:    -6.960      1.845      2.689
REMARK INTER + INTRA:          -9.943
REMARK INTER:                  -9.235
REMARK INTRA:                  -0.707
REMARK UNBOUND:                -0.948
REMARK  Name = 7a.sdf
REMARK  6 active torsions:
REMARK  status: ('A' for Active; 'I' for Inactive)
REMARK    1  A    between atoms: N_7  and  C_12
REMARK    2  A    between atoms: C_9  and  C_10
REMARK    3  A    between atoms: C_10  and  C_11
REMARK    4  A    between atoms: C_11  and  O_21
REMARK    5  A    between atoms: C_12  and  C_13
REMARK    6  A    between atoms: O_21  and  C_22
REMARK                            x       y       z     vdW  Elec       q    Type
REMARK                         _______ _______ _______ _____ _____    ______ ____
ROOT
ATOM      1  C   UNL     1     -50.369  -0.510  35.433  0.00  0.00    -0.061 A 
ATOM      2  C   UNL     1     -49.004  -0.306  35.611  0.00  0.00    -0.060 A 
ATOM      3  C   UNL     1     -48.073  -1.298  35.262  0.00  0.00    -0.038 A 
ATOM      4  C   UNL     1     -48.552  -2.522  34.758  0.00  0.00    +0.050 A 
ATOM      5  C   UNL     1     -49.920  -2.719  34.516  0.00  0.00    +0.004 A 
ATOM      6  C   UNL     1     -50.831  -1.697  34.865  0.00  0.00    -0.052 A 
ATOM      7  N   UNL     1     -47.915  -3.710  34.427  0.00  0.00    -0.342 N 
ATOM      8  C   UNL     1     -48.827  -4.585  33.886  0.00  0.00    +0.010 A 
ATOM      9  C   UNL     1     -50.079  -4.003  33.908  0.00  0.00    -0.012 A 
ENDROOT
BRANCH   9  10
ATOM     10  C   UNL     1     -51.344  -4.610  33.382  0.00  0.00    +0.072 C 
BRANCH  10  11
ATOM     11  C   UNL     1     -51.817  -4.012  32.072  0.00  0.00    +0.311 C 
ATOM     12  O   UNL     1     -52.536  -3.024  31.946  0.00  0.00    -0.250 OA
BRANCH  11  13
ATOM     13  O   UNL     1     -51.326  -4.744  31.029  0.00  0.00    -0.468 OA
ATOM     14  C   UNL     1     -52.172  -5.835  30.648  0.00  0.00    +0.082 C 
ENDBRANCH  11  13
ENDBRANCH  10  11
ENDBRANCH   9  10
BRANCH   7  15
ATOM     15  C   UNL     1     -46.529  -4.097  34.709  0.00  0.00    +0.048 C 
BRANCH  15  16
ATOM     16  C   UNL     1     -45.902  -4.853  33.561  0.00  0.00    -0.028 A 
ATOM     17  C   UNL     1     -45.767  -6.245  33.633  0.00  0.00    -0.056 A 
ATOM     18  C   UNL     1     -45.003  -6.931  32.688  0.00  0.00    -0.047 A 
ATOM     19  C   UNL     1     -44.402  -6.230  31.646  0.00  0.00    +0.018 A 
ATOM     20  C   UNL     1     -44.621  -4.863  31.495  0.00  0.00    -0.047 A 
ATOM     21  C   UNL     1     -45.373  -4.176  32.451  0.00  0.00    -0.056 A 
ATOM     22 BR   UNL     1     -43.213  -7.126  30.480  0.00  0.00    -0.050 Br
ENDBRANCH  15  16
ENDBRANCH   7  15
TORSDOF 5
ENDMDL
MODEL 3
REMARK VINA RESULT:    -6.903      3.983      6.005
REMARK INTER + INTRA:          -9.869
REMARK INTER:                  -9.028
REMARK INTRA:                  -0.841
REMARK UNBOUND:                -0.948
REMARK  Name = 7a.sdf
REMARK  6 active torsions:
REMARK  status: ('A' for Active; 'I' for Inactive)
REMARK    1  A    between atoms: N_7  and  C_12
REMARK    2  A    between atoms: C_9  and  C_10
REMARK    3  A    between atoms: C_10  and  C_11
REMARK    4  A    between atoms: C_11  and  O_21
REMARK    5  A    between atoms: C_12  and  C_13
REMARK    6  A    between atoms: O_21  and  C_22
REMARK                            x       y       z     vdW  Elec       q    Type
REMARK                         _______ _______ _______ _____ _____    ______ ____
ROOT
ATOM      1  C   UNL     1     -46.841  -1.088  34.804  0.00  0.00    -0.061 A 
ATOM      2  C   UNL     1     -48.182  -1.065  35.172  0.00  0.00    -0.060 A 
ATOM      3  C   UNL     1     -48.956  -2.236  35.158  0.00  0.00    -0.038 A 
ATOM      4  C   UNL     1     -48.355  -3.434  34.730  0.00  0.00    +0.050 A 
ATOM      5  C   UNL     1     -46.989  -3.486  34.414  0.00  0.00    +0.004 A 
ATOM      6  C   UNL     1     -46.232  -2.293  34.451  0.00  0.00    -0.052 A 
ATOM      7  N   UNL     1     -48.862  -4.708  34.508  0.00  0.00    -0.342 N 
ATOM      8  C   UNL     1     -47.835  -5.560  34.178  0.00  0.00    +0.010 A 
ATOM      9  C   UNL     1     -46.654  -4.846  34.126  0.00  0.00    -0.012 A 
ENDROOT
BRANCH   9  10
ATOM     10  C   UNL     1     -45.296  -5.406  33.832  0.00  0.00    +0.072 C 
BRANCH  10  11
ATOM     11  C   UNL     1     -44.925  -5.384  32.363  0.00  0.00    +0.311 C 
ATOM     12  O   UNL     1     -45.161  -4.476  31.570  0.00  0.00    -0.250 OA
BRANCH  11  13
ATOM     13  O   UNL     1     -44.286  -6.545  32.033  0.00  0.00    -0.468 OA
ATOM     14  C   UNL     1     -42.979  -6.342  31.483  0.00  0.00    +0.082 C 
ENDBRANCH  11  13
ENDBRANCH  10  11
ENDBRANCH   9  10
BRANCH   7  15
ATOM     15  C   UNL     1     -50.268  -5.122  34.471  0.00  0.00    +0.048 C 
BRANCH  15  16
ATOM     16  C   UNL     1     -50.654  -5.713  33.135  0.00  0.00    -0.028 A 
ATOM     17  C   UNL     1     -50.775  -4.883  32.013  0.00  0.00    -0.056 A 
ATOM     18  C   UNL     1     -51.336  -5.368  30.831  0.00  0.00    -0.047 A 
ATOM     19  C   UNL     1     -51.743  -6.698  30.756  0.00  0.00    +0.018 A 
ATOM     20  C   UNL     1     -51.524  -7.565  31.823  0.00  0.00    -0.047 A 
ATOM     21  C   UNL     1     -50.978  -7.073  33.010  0.00  0.00    -0.056 A 
ATOM     22 BR   UNL     1     -52.675  -7.305  29.227  0.00  0.00    -0.050 Br
ENDBRANCH  15  16
ENDBRANCH   7  15
TORSDOF 5
ENDMDL
