MODEL 1
REMARK VINA RESULT:    -8.035      0.000      0.000
REMARK INTER + INTRA:          -9.844
REMARK INTER:                  -9.444
REMARK INTRA:                  -0.400
REMARK UNBOUND:                -0.400
REMARK  Name = 9.sdf
REMARK  3 active torsions:
REMARK  status: ('A' for Active; 'I' for Inactive)
REMARK    1  A    between atoms: C_9  and  C_10
REMARK    2  A    between atoms: C_11  and  C_12
REMARK    3  A    between atoms: C_12  and  C_13
REMARK                            x       y       z     vdW  Elec       q    Type
REMARK                         _______ _______ _______ _____ _____    ______ ____
ROOT
ATOM      1  C   UNL     1     -50.403  -2.387  35.556  0.00  0.00    -0.061 A 
ATOM      2  C   UNL     1     -50.280  -1.011  35.716  0.00  0.00    -0.060 A 
ATOM      3  C   UNL     1     -49.062  -0.367  35.480  0.00  0.00    -0.038 A 
ATOM      4  C   UNL     1     -47.976  -1.152  35.069  0.00  0.00    +0.047 A 
ATOM      5  C   UNL     1     -48.064  -2.534  34.880  0.00  0.00    +0.007 A 
ATOM      6  C   UNL     1     -49.307  -3.156  35.146  0.00  0.00    -0.052 A 
ATOM      7  N   UNL     1     -46.680  -0.786  34.788  0.00  0.00    -0.360 N 
ATOM      8  C   UNL     1     -45.941  -1.882  34.432  0.00  0.00    +0.010 A 
ATOM      9  C   UNL     1     -46.772  -2.981  34.448  0.00  0.00    +0.000 A 
ATOM     10  H   UNL     1     -46.334   0.134  34.836  0.00  0.00    +0.000 HD
ENDROOT
BRANCH   9  11
ATOM     11  C   UNL     1     -46.326  -4.294  34.098  0.00  0.00    -0.049 C 
ATOM     12  C   UNL     1     -45.302  -4.552  33.272  0.00  0.00    -0.014 C 
BRANCH  12  13
ATOM     13  C   UNL     1     -44.913  -5.940  32.914  0.00  0.00    +0.186 C 
ATOM     14  O   UNL     1     -45.407  -6.923  33.452  0.00  0.00    -0.287 OA
BRANCH  13  15
ATOM     15  C   UNL     1     -43.849  -6.076  31.881  0.00  0.00    +0.022 A 
ATOM     16  C   UNL     1     -44.092  -5.617  30.582  0.00  0.00    -0.051 A 
ATOM     17  C   UNL     1     -43.111  -5.760  29.598  0.00  0.00    -0.061 A 
ATOM     18  C   UNL     1     -41.884  -6.348  29.910  0.00  0.00    -0.062 A 
ATOM     19  C   UNL     1     -41.627  -6.781  31.209  0.00  0.00    -0.061 A 
ATOM     20  C   UNL     1     -42.605  -6.641  32.195  0.00  0.00    -0.051 A 
ENDBRANCH  13  15
ENDBRANCH  12  13
ENDBRANCH   9  11
TORSDOF 3
ENDMDL
MODEL 2
REMARK VINA RESULT:    -7.830      2.696      7.434
REMARK INTER + INTRA:          -9.603
REMARK INTER:                  -9.072
REMARK INTRA:                  -0.531
REMARK UNBOUND:                -0.400
REMARK  Name = 9.sdf
REMARK  3 active torsions:
REMARK  status: ('A' for Active; 'I' for Inactive)
REMARK    1  A    between atoms: C_9  and  C_10
REMARK    2  A    between atoms: C_11  and  C_12
REMARK    3  A    between atoms: C_12  and  C_13
REMARK                            x       y       z     vdW  Elec       q    Type
REMARK                         _______ _______ _______ _____ _____    ______ ____
ROOT
ATOM      1  C   UNL     1     -43.733  -5.087  31.396  0.00  0.00    -0.061 A 
ATOM      2  C   UNL     1     -43.147  -6.206  30.814  0.00  0.00    -0.060 A 
ATOM      3  C   UNL     1     -43.770  -7.455  30.872  0.00  0.00    -0.038 A 
ATOM      4  C   UNL     1     -45.007  -7.539  31.526  0.00  0.00    +0.047 A 
ATOM      5  C   UNL     1     -45.637  -6.435  32.108  0.00  0.00    +0.007 A 
ATOM      6  C   UNL     1     -44.969  -5.189  32.047  0.00  0.00    -0.052 A 
ATOM      7  N   UNL     1     -45.818  -8.629  31.741  0.00  0.00    -0.360 N 
ATOM      8  C   UNL     1     -46.937  -8.261  32.440  0.00  0.00    +0.010 A 
ATOM      9  C   UNL     1     -46.874  -6.903  32.660  0.00  0.00    +0.000 A 
ATOM     10  H   UNL     1     -45.622  -9.544  31.435  0.00  0.00    +0.000 HD
ENDROOT
BRANCH   9  11
ATOM     11  C   UNL     1     -47.903  -6.181  33.344  0.00  0.00    -0.049 C 
ATOM     12  C   UNL     1     -47.688  -5.344  34.368  0.00  0.00    -0.014 C 
BRANCH  12  13
ATOM     13  C   UNL     1     -48.805  -4.656  35.067  0.00  0.00    +0.186 C 
ATOM     14  O   UNL     1     -49.774  -5.258  35.512  0.00  0.00    -0.287 OA
BRANCH  13  15
ATOM     15  C   UNL     1     -48.703  -3.174  35.165  0.00  0.00    +0.022 A 
ATOM     16  C   UNL     1     -47.469  -2.555  34.939  0.00  0.00    -0.051 A 
ATOM     17  C   UNL     1     -47.355  -1.167  35.051  0.00  0.00    -0.061 A 
ATOM     18  C   UNL     1     -48.472  -0.395  35.372  0.00  0.00    -0.062 A 
ATOM     19  C   UNL     1     -49.709  -1.004  35.570  0.00  0.00    -0.061 A 
ATOM     20  C   UNL     1     -49.827  -2.390  35.461  0.00  0.00    -0.051 A 
ENDBRANCH  13  15
ENDBRANCH  12  13
ENDBRANCH   9  11
TORSDOF 3
ENDMDL
MODEL 3
REMARK VINA RESULT:    -7.728      2.603      3.091
REMARK INTER + INTRA:          -9.483
REMARK INTER:                  -8.930
REMARK INTRA:                  -0.553
REMARK UNBOUND:                -0.400
REMARK  Name = 9.sdf
REMARK  3 active torsions:
REMARK  status: ('A' for Active; 'I' for Inactive)
REMARK    1  A    between atoms: C_9  and  C_10
REMARK    2  A    between atoms: C_11  and  C_12
REMARK    3  A    between atoms: C_12  and  C_13
REMARK                            x       y       z     vdW  Elec       q    Type
REMARK                         _______ _______ _______ _____ _____    ______ ____
ROOT
ATOM      1  C   UNL     1     -51.529  -1.782  35.852  0.00  0.00    -0.061 A 
ATOM      2  C   UNL     1     -51.415  -0.398  35.905  0.00  0.00    -0.060 A 
ATOM      3  C   UNL     1     -50.188   0.230  35.671  0.00  0.00    -0.038 A 
ATOM      4  C   UNL     1     -49.085  -0.581  35.373  0.00  0.00    +0.047 A 
ATOM      5  C   UNL     1     -49.163  -1.974  35.293  0.00  0.00    +0.007 A 
ATOM      6  C   UNL     1     -50.415  -2.578  35.555  0.00  0.00    -0.052 A 
ATOM      7  N   UNL     1     -47.778  -0.232  35.119  0.00  0.00    -0.360 N 
ATOM      8  C   UNL     1     -47.023  -1.350  34.887  0.00  0.00    +0.010 A 
ATOM      9  C   UNL     1     -47.853  -2.447  34.956  0.00  0.00    +0.000 A 
ATOM     10  H   UNL     1     -47.435   0.691  35.107  0.00  0.00    +0.000 HD
ENDROOT
BRANCH   9  11
ATOM     11  C   UNL     1     -47.390  -3.783  34.734  0.00  0.00    -0.049 C 
ATOM     12  C   UNL     1     -46.384  -4.109  33.911  0.00  0.00    -0.014 C 
BRANCH  12  13
ATOM     13  C   UNL     1     -45.977  -5.521  33.690  0.00  0.00    +0.186 C 
ATOM     14  O   UNL     1     -44.985  -6.011  34.216  0.00  0.00    -0.287 OA
BRANCH  13  15
ATOM     15  C   UNL     1     -46.824  -6.308  32.752  0.00  0.00    +0.022 A 
ATOM     16  C   UNL     1     -47.351  -5.684  31.617  0.00  0.00    -0.051 A 
ATOM     17  C   UNL     1     -48.167  -6.406  30.741  0.00  0.00    -0.061 A 
ATOM     18  C   UNL     1     -48.446  -7.751  30.989  0.00  0.00    -0.062 A 
ATOM     19  C   UNL     1     -47.900  -8.383  32.104  0.00  0.00    -0.061 A 
ATOM     20  C   UNL     1     -47.086  -7.667  32.982  0.00  0.00    -0.051 A 
ENDBRANCH  13  15
ENDBRANCH  12  13
ENDBRANCH   9  11
TORSDOF 3
ENDMDL
