REMARK  Name = native.pdb
REMARK  9 active torsions:
REMARK  status: ('A' for Active; 'I' for Inactive)
REMARK    1  A    between atoms: P_1  and  O_8
REMARK    2  A    between atoms: P_5  and  O_8
REMARK    3  A    between atoms: P_5  and  O_12
REMARK    4  A    between atoms: P_9  and  O_12
REMARK    5  A    between atoms: P_9  and  O_13
REMARK    6  A    between atoms: O_13  and  C_14
REMARK    7  A    between atoms: C_14  and  C_15
REMARK    8  A    between atoms: C_19  and  N_20
REMARK    9  A    between atoms: C_24  and  N_25
REMARK                            x       y       z     vdW  Elec       q    Type
REMARK                         _______ _______ _______ _____ _____    ______ ____
ROOT
ATOM      1  C   UNL     1       1.023  -4.490  -5.400  0.00  0.00    +0.085 C 
ATOM      2  O   UNL     1       1.771  -5.043  -6.504  0.00  0.00    -0.351 OA
ATOM      3  C   UNL     1       1.057  -5.576  -4.324  0.00  0.00    -0.020 C 
ATOM      4  C   UNL     1       1.038  -6.854  -5.133  0.00  0.00    -0.005 C 
ATOM      5  C   UNL     1       1.860  -6.489  -6.362  0.00  0.00    +0.138 C 
ENDROOT
BRANCH   5   6
ATOM      6  N   UNL     1       3.260  -6.881  -6.272  0.00  0.00    -0.288 N 
ATOM      7  C   UNL     1       4.339  -6.035  -6.264  0.00  0.00    +0.100 A 
ATOM      8  N   UNL     1       5.480  -6.683  -6.156  0.00  0.00    -0.231 NA
ATOM      9  C   UNL     1       5.128  -8.015  -6.135  0.00  0.00    +0.147 A 
ATOM     10  C   UNL     1       5.896  -9.183  -6.049  0.00  0.00    +0.147 A 
ATOM     11  N   UNL     1       5.263 -10.374  -6.108  0.00  0.00    -0.219 NA
ATOM     12  C   UNL     1       3.915 -10.376  -6.210  0.00  0.00    +0.120 A 
ATOM     13  N   UNL     1       3.070  -9.320  -6.277  0.00  0.00    -0.216 NA
ATOM     14  C   UNL     1       3.752  -8.158  -6.238  0.00  0.00    +0.167 A 
BRANCH  10  15
ATOM     15  N   UNL     1       7.282  -9.167  -5.925  0.00  0.00    -0.341 N 
ATOM     16  H   UNL     1       7.762  -8.309  -5.880  0.00  0.00    +0.000 HD
ATOM     17  H   UNL     1       7.782 -10.014  -5.882  0.00  0.00    +0.000 HD
ENDBRANCH  10  15
ENDBRANCH   5   6
BRANCH   1  18
ATOM     18  C   UNL     1       1.576  -3.118  -4.913  0.00  0.00    +0.085 C 
BRANCH  18  19
ATOM     19  O   UNL     1       1.473  -2.052  -5.880  0.00  0.00    -0.284 OA
BRANCH  19  20
ATOM     20  P   UNL     1       1.881  -0.553  -5.394  0.00  0.00    +0.483 P 
ATOM     21  O   UNL     1       1.894  -0.359  -3.913  0.00  0.00    -0.227 OA
ATOM     22  O   UNL     1       0.727   0.321  -6.100  0.00  0.00    -0.302 OA
BRANCH  20  23
ATOM     23  O   UNL     1       3.225  -0.045  -6.171  0.00  0.00    -0.186 OA
BRANCH  23  24
ATOM     24  P   UNL     1       3.113  -0.576  -7.813  0.00  0.00    +0.492 P 
ATOM     25  O   UNL     1       3.801  -1.892  -7.444  0.00  0.00    -0.226 OA
ATOM     26  O   UNL     1       4.319   0.448  -8.239  0.00  0.00    -0.302 OA
BRANCH  24  27
ATOM     27  O   UNL     1       3.001  -1.108  -9.456  0.00  0.00    -0.186 OA
BRANCH  27  28
ATOM     28  P   UNL     1       1.597  -0.491  -9.947  0.00  0.00    +0.481 P 
ATOM     29  O   UNL     1       0.982   0.480  -8.987  0.00  0.00    -0.227 OA
ATOM     30  O   UNL     1       1.853   0.038 -11.422  0.00  0.00    -0.302 OA
ATOM     31  O   UNL     1       0.606  -1.697 -10.248  0.00  0.00    -0.302 OA
ENDBRANCH  27  28
ENDBRANCH  24  27
ENDBRANCH  23  24
ENDBRANCH  20  23
ENDBRANCH  19  20
ENDBRANCH  18  19
ENDBRANCH   1  18
TORSDOF 9
