MODEL 1
REMARK VINA RESULT:    -6.220      0.000      0.000
REMARK INTER + INTRA:          -6.220
REMARK INTER:                  -6.220
REMARK INTRA:                   0.000
REMARK UNBOUND:                 0.000
REMARK  Name = 0.sdf
REMARK  0 active torsions:
REMARK  status: ('A' for Active; 'I' for Inactive)
REMARK                            x       y       z     vdW  Elec       q    Type
REMARK                         _______ _______ _______ _____ _____    ______ ____
ROOT
ATOM      1  C   UNL     1     -11.044  12.694 -13.814  0.00  0.00    -0.061 A 
ATOM      2  C   UNL     1     -10.814  13.148 -12.517  0.00  0.00    -0.060 A 
ATOM      3  C   UNL     1      -9.618  12.854 -11.851  0.00  0.00    -0.038 A 
ATOM      4  C   UNL     1      -8.669  12.086 -12.536  0.00  0.00    +0.046 A 
ATOM      5  C   UNL     1      -8.873  11.617 -13.834  0.00  0.00    -0.000 A 
ATOM      6  C   UNL     1     -10.082  11.930 -14.485  0.00  0.00    -0.053 A 
ATOM      7  N   UNL     1      -7.426  11.646 -12.138  0.00  0.00    -0.361 N 
ATOM      8  C   UNL     1      -6.843  10.908 -13.134  0.00  0.00    +0.003 A 
ATOM      9  C   UNL     1      -7.714  10.878 -14.199  0.00  0.00    -0.037 A 
ATOM     10  H   UNL     1      -7.017  11.834 -11.263  0.00  0.00    +0.000 HD
ENDROOT
TORSDOF 0
ENDMDL
