MODEL 1
REMARK VINA RESULT:    -8.123      0.000      0.000
REMARK INTER + INTRA:          -9.180
REMARK INTER:                  -9.073
REMARK INTRA:                  -0.107
REMARK UNBOUND:                -0.107
REMARK  Name = 0c.sdf
REMARK  2 active torsions:
REMARK  status: ('A' for Active; 'I' for Inactive)
REMARK    1  A    between atoms: N_7  and  C_10
REMARK    2  A    between atoms: C_10  and  C_11
REMARK                            x       y       z     vdW  Elec       q    Type
REMARK                         _______ _______ _______ _____ _____    ______ ____
ROOT
ATOM      1  C   UNL     1      -8.802  12.383 -11.987  0.00  0.00    -0.061 A 
ATOM      2  C   UNL     1      -9.994  13.097 -11.967  0.00  0.00    -0.060 A 
ATOM      3  C   UNL     1     -10.877  13.057 -13.052  0.00  0.00    -0.038 A 
ATOM      4  C   UNL     1     -10.533  12.267 -14.162  0.00  0.00    +0.049 A 
ATOM      5  C   UNL     1      -9.351  11.520 -14.186  0.00  0.00    -0.000 A 
ATOM      6  C   UNL     1      -8.473  11.583 -13.087  0.00  0.00    -0.053 A 
ATOM      7  N   UNL     1     -11.171  12.045 -15.370  0.00  0.00    -0.342 N 
ATOM      8  C   UNL     1     -10.451  11.150 -16.124  0.00  0.00    +0.006 A 
ATOM      9  C   UNL     1      -9.321  10.812 -15.417  0.00  0.00    -0.036 A 
ENDROOT
BRANCH   7  10
ATOM     10  C   UNL     1     -12.385  12.709 -15.838  0.00  0.00    +0.048 C 
BRANCH  10  11
ATOM     11  C   UNL     1     -12.961  12.020 -17.050  0.00  0.00    -0.028 A 
ATOM     12  C   UNL     1     -12.954  12.653 -18.301  0.00  0.00    -0.055 A 
ATOM     13  C   UNL     1     -13.592  12.069 -19.396  0.00  0.00    -0.043 A 
ATOM     14  C   UNL     1     -14.230  10.840 -19.250  0.00  0.00    +0.041 A 
ATOM     15  C   UNL     1     -14.204  10.173 -18.028  0.00  0.00    -0.043 A 
ATOM     16  C   UNL     1     -13.568  10.759 -16.931  0.00  0.00    -0.055 A 
ATOM     17 CL   UNL     1     -15.077  10.154 -20.582  0.00  0.00    -0.084 Cl
ENDBRANCH  10  11
ENDBRANCH   7  10
TORSDOF 2
ENDMDL
