MODEL 1
REMARK VINA RESULT:    -9.762      0.000      0.000
REMARK INTER + INTRA:         -13.944
REMARK INTER:                 -13.186
REMARK INTRA:                  -0.758
REMARK UNBOUND:                -0.758
REMARK  Name = 10a.sdf
REMARK  7 active torsions:
REMARK  status: ('A' for Active; 'I' for Inactive)
REMARK    1  A    between atoms: N_7  and  C_22
REMARK    2  A    between atoms: C_9  and  C_10
REMARK    3  A    between atoms: C_11  and  C_12
REMARK    4  A    between atoms: C_12  and  C_13
REMARK    5  A    between atoms: C_17  and  O_20
REMARK    6  A    between atoms: O_20  and  C_21
REMARK    7  A    between atoms: C_22  and  C_23
REMARK                            x       y       z     vdW  Elec       q    Type
REMARK                         _______ _______ _______ _____ _____    ______ ____
ROOT
ATOM      1  C   UNL     1     -12.773   8.412 -18.175  0.00  0.00    -0.061 A 
ATOM      2  C   UNL     1     -13.518   8.179 -19.325  0.00  0.00    -0.060 A 
ATOM      3  C   UNL     1     -14.307   9.187 -19.887  0.00  0.00    -0.038 A 
ATOM      4  C   UNL     1     -14.324  10.447 -19.267  0.00  0.00    +0.050 A 
ATOM      5  C   UNL     1     -13.551  10.717 -18.130  0.00  0.00    +0.007 A 
ATOM      6  C   UNL     1     -12.777   9.674 -17.575  0.00  0.00    -0.052 A 
ATOM      7  N   UNL     1     -15.025  11.604 -19.562  0.00  0.00    -0.342 N 
ATOM      8  C   UNL     1     -14.659  12.606 -18.692  0.00  0.00    +0.013 A 
ATOM      9  C   UNL     1     -13.749  12.091 -17.793  0.00  0.00    +0.000 A 
ENDROOT
BRANCH   9  10
ATOM     10  C   UNL     1     -13.100  12.804 -16.734  0.00  0.00    -0.049 C 
ATOM     11  C   UNL     1     -13.118  12.455 -15.442  0.00  0.00    -0.014 C 
BRANCH  11  12
ATOM     12  C   UNL     1     -12.472  13.314 -14.410  0.00  0.00    +0.186 C 
ATOM     13  O   UNL     1     -12.981  14.333 -13.976  0.00  0.00    -0.287 OA
BRANCH  12  14
ATOM     14  C   UNL     1     -11.118  12.868 -13.947  0.00  0.00    +0.022 A 
ATOM     15  C   UNL     1     -10.315  12.130 -14.815  0.00  0.00    -0.047 A 
ATOM     16  C   UNL     1      -9.078  11.649 -14.374  0.00  0.00    -0.019 A 
ATOM     17  C   UNL     1      -8.626  11.916 -13.080  0.00  0.00    +0.120 A 
ATOM     18  C   UNL     1      -9.414  12.689 -12.222  0.00  0.00    -0.019 A 
ATOM     19  C   UNL     1     -10.654  13.165 -12.657  0.00  0.00    -0.047 A 
BRANCH  17  20
ATOM     20  O   UNL     1      -7.435  11.339 -12.747  0.00  0.00    -0.495 OA
ATOM     21  C   UNL     1      -7.006  10.245 -13.550  0.00  0.00    +0.079 C 
ENDBRANCH  17  20
ENDBRANCH  12  14
ENDBRANCH  11  12
ENDBRANCH   9  10
BRANCH   7  22
ATOM     22  C   UNL     1     -16.082  11.741 -20.562  0.00  0.00    +0.048 C 
BRANCH  22  23
ATOM     23  C   UNL     1     -16.509  13.177 -20.737  0.00  0.00    -0.028 A 
ATOM     24  C   UNL     1     -15.745  14.058 -21.518  0.00  0.00    -0.056 A 
ATOM     25  C   UNL     1     -16.079  15.411 -21.597  0.00  0.00    -0.047 A 
ATOM     26  C   UNL     1     -17.188  15.890 -20.905  0.00  0.00    +0.018 A 
ATOM     27  C   UNL     1     -17.989  15.021 -20.167  0.00  0.00    -0.047 A 
ATOM     28  C   UNL     1     -17.652  13.669 -20.085  0.00  0.00    -0.056 A 
ATOM     29 BR   UNL     1     -17.591  17.736 -20.942  0.00  0.00    -0.050 Br
ENDBRANCH  22  23
ENDBRANCH   7  22
TORSDOF 6
ENDMDL
