MODEL 1
REMARK VINA RESULT:    -6.995      0.000      0.000
REMARK INTER + INTRA:          -8.626
REMARK INTER:                  -8.222
REMARK INTRA:                  -0.404
REMARK UNBOUND:                -0.404
REMARK  Name = 14.sdf
REMARK  4 active torsions:
REMARK  status: ('A' for Active; 'I' for Inactive)
REMARK    1  A    between atoms: C_9  and  C_10
REMARK    2  A    between atoms: C_10  and  O_11
REMARK    3  A    between atoms: O_11  and  C_12
REMARK    4  A    between atoms: C_12  and  C_13
REMARK                            x       y       z     vdW  Elec       q    Type
REMARK                         _______ _______ _______ _____ _____    ______ ____
ROOT
ATOM      1  C   UNL     1     -10.915  12.923 -13.168  0.00  0.00    -0.061 A 
ATOM      2  C   UNL     1     -10.246  13.320 -12.016  0.00  0.00    -0.060 A 
ATOM      3  C   UNL     1      -8.973  12.825 -11.720  0.00  0.00    -0.038 A 
ATOM      4  C   UNL     1      -8.403  11.911 -12.616  0.00  0.00    +0.047 A 
ATOM      5  C   UNL     1      -9.047  11.487 -13.779  0.00  0.00    +0.006 A 
ATOM      6  C   UNL     1     -10.328  12.014 -14.057  0.00  0.00    -0.052 A 
ATOM      7  N   UNL     1      -7.188  11.268 -12.568  0.00  0.00    -0.360 N 
ATOM      8  C   UNL     1      -7.045  10.444 -13.652  0.00  0.00    +0.009 A 
ATOM      9  C   UNL     1      -8.181  10.550 -14.437  0.00  0.00    +0.015 A 
ATOM     10  H   UNL     1      -6.517  11.385 -11.857  0.00  0.00    +0.000 HD
ENDROOT
BRANCH   9  11
ATOM     11  C   UNL     1      -8.444   9.817 -15.723  0.00  0.00    +0.119 C 
BRANCH  11  12
ATOM     12  O   UNL     1      -9.628   8.966 -15.631  0.00  0.00    -0.460 OA
BRANCH  12  13
ATOM     13  C   UNL     1     -10.591   9.091 -16.595  0.00  0.00    +0.304 C 
ATOM     14  C   UNL     1     -10.474  10.338 -17.441  0.00  0.00    +0.033 C 
ATOM     15  O   UNL     1     -11.489   8.294 -16.788  0.00  0.00    -0.251 OA
ENDBRANCH  12  13
ENDBRANCH  11  12
ENDBRANCH   9  11
TORSDOF 3
ENDMDL
