MODEL 1
REMARK VINA RESULT:    -9.670      0.000      0.000
REMARK INTER + INTRA:         -12.289
REMARK INTER:                 -11.931
REMARK INTRA:                  -0.358
REMARK UNBOUND:                -0.358
REMARK  Name = 17c.sdf
REMARK  4 active torsions:
REMARK  status: ('A' for Active; 'I' for Inactive)
REMARK    1  A    between atoms: N_7  and  C_16
REMARK    2  A    between atoms: C_9  and  C_10
REMARK    3  A    between atoms: N_11  and  N_12
REMARK    4  A    between atoms: C_16  and  C_17
REMARK                            x       y       z     vdW  Elec       q    Type
REMARK                         _______ _______ _______ _____ _____    ______ ____
ROOT
ATOM      1  C   UNL     1      -8.916  12.599 -11.970  0.00  0.00    -0.061 A 
ATOM      2  C   UNL     1     -10.122  13.290 -11.983  0.00  0.00    -0.060 A 
ATOM      3  C   UNL     1     -11.009  13.179 -13.063  0.00  0.00    -0.038 A 
ATOM      4  C   UNL     1     -10.638  12.377 -14.158  0.00  0.00    +0.050 A 
ATOM      5  C   UNL     1      -9.451  11.630 -14.138  0.00  0.00    +0.009 A 
ATOM      6  C   UNL     1      -8.584  11.749 -13.027  0.00  0.00    -0.052 A 
ATOM      7  N   UNL     1     -11.238  12.151 -15.389  0.00  0.00    -0.342 N 
ATOM      8  C   UNL     1     -10.507  11.218 -16.086  0.00  0.00    +0.015 A 
ATOM      9  C   UNL     1      -9.402  10.859 -15.339  0.00  0.00    +0.020 A 
ENDROOT
BRANCH   9  10
ATOM     10  C   UNL     1      -8.398   9.887 -15.724  0.00  0.00    +0.055 C 
ATOM     11  N   UNL     1      -8.283   8.798 -15.034  0.00  0.00    -0.186 NA
BRANCH  11  12
ATOM     12  N   UNL     1      -7.289   7.946 -15.432  0.00  0.00    -0.191 N 
ATOM     13  C   UNL     1      -6.167   7.733 -14.659  0.00  0.00    +0.317 C 
ATOM     14  O   UNL     1      -5.285   6.960 -14.973  0.00  0.00    -0.251 OA
ATOM     15  N   UNL     1      -6.139   8.473 -13.529  0.00  0.00    -0.312 N 
ATOM     16  H   UNL     1      -7.379   7.472 -16.290  0.00  0.00    +0.000 HD
ATOM     17  H   UNL     1      -6.882   9.084 -13.322  0.00  0.00    +0.000 HD
ATOM     18  H   UNL     1      -5.374   8.401 -12.913  0.00  0.00    +0.000 HD
ENDBRANCH  11  12
ENDBRANCH   9  10
BRANCH   7  19
ATOM     19  C   UNL     1     -12.373  12.872 -15.976  0.00  0.00    +0.048 C 
BRANCH  19  20
ATOM     20  C   UNL     1     -12.955  12.148 -17.165  0.00  0.00    -0.028 A 
ATOM     21  C   UNL     1     -12.948  12.752 -18.430  0.00  0.00    -0.055 A 
ATOM     22  C   UNL     1     -13.673  12.195 -19.485  0.00  0.00    -0.043 A 
ATOM     23  C   UNL     1     -14.374  11.008 -19.292  0.00  0.00    +0.041 A 
ATOM     24  C   UNL     1     -14.292  10.333 -18.077  0.00  0.00    -0.043 A 
ATOM     25  C   UNL     1     -13.582  10.899 -17.015  0.00  0.00    -0.055 A 
ATOM     26 CL   UNL     1     -15.391  10.405 -20.542  0.00  0.00    -0.084 Cl
ENDBRANCH  19  20
ENDBRANCH   7  19
TORSDOF 4
ENDMDL
