MODEL 1
REMARK VINA RESULT:    -9.974      0.000      0.000
REMARK INTER + INTRA:         -12.116
REMARK INTER:                 -11.723
REMARK INTRA:                  -0.393
REMARK UNBOUND:                -0.393
REMARK  Name = 17d.sdf
REMARK  3 active torsions:
REMARK  status: ('A' for Active; 'I' for Inactive)
REMARK    1  A    between atoms: C_9  and  C_10
REMARK    2  A    between atoms: N_11  and  N_12
REMARK    3  A    between atoms: C_16  and  C_17
REMARK                            x       y       z     vdW  Elec       q    Type
REMARK                         _______ _______ _______ _____ _____    ______ ____
ROOT
ATOM      1  C   UNL     1      -9.298  12.401 -11.986  0.00  0.00    -0.061 A 
ATOM      2  C   UNL     1     -10.428  13.190 -12.165  0.00  0.00    -0.060 A 
ATOM      3  C   UNL     1     -11.130  13.174 -13.372  0.00  0.00    -0.037 A 
ATOM      4  C   UNL     1     -10.669  12.341 -14.409  0.00  0.00    +0.057 A 
ATOM      5  C   UNL     1      -9.535  11.531 -14.246  0.00  0.00    +0.009 A 
ATOM      6  C   UNL     1      -8.843  11.572 -13.015  0.00  0.00    -0.052 A 
ATOM      7  N   UNL     1     -11.196  12.091 -15.676  0.00  0.00    -0.282 N 
ATOM      8  C   UNL     1     -10.359  11.192 -16.307  0.00  0.00    +0.023 A 
ATOM      9  C   UNL     1      -9.346  10.806 -15.457  0.00  0.00    +0.020 A 
ATOM     10  C   UNL     1     -12.378  12.628 -16.243  0.00  0.00    +0.263 C 
ATOM     11  O   UNL     1     -12.801  13.695 -15.808  0.00  0.00    -0.267 OA
ENDROOT
BRANCH  10  12
ATOM     12  C   UNL     1     -13.123  11.955 -17.340  0.00  0.00    +0.040 A 
ATOM     13  C   UNL     1     -13.690  10.690 -17.134  0.00  0.00    -0.049 A 
ATOM     14  C   UNL     1     -14.349  10.040 -18.175  0.00  0.00    -0.061 A 
ATOM     15  C   UNL     1     -14.470  10.668 -19.414  0.00  0.00    -0.062 A 
ATOM     16  C   UNL     1     -13.949  11.948 -19.608  0.00  0.00    -0.061 A 
ATOM     17  C   UNL     1     -13.280  12.599 -18.570  0.00  0.00    -0.049 A 
ENDBRANCH  10  12
BRANCH   9  18
ATOM     18  C   UNL     1      -8.315   9.847 -15.795  0.00  0.00    +0.055 C 
ATOM     19  N   UNL     1      -8.235   8.772 -15.080  0.00  0.00    -0.186 NA
BRANCH  19  20
ATOM     20  N   UNL     1      -7.252   7.889 -15.426  0.00  0.00    -0.191 N 
ATOM     21  C   UNL     1      -6.155   7.695 -14.622  0.00  0.00    +0.317 C 
ATOM     22  O   UNL     1      -5.283   6.873 -14.870  0.00  0.00    -0.251 OA
ATOM     23  N   UNL     1      -6.111   8.507 -13.535  0.00  0.00    -0.312 N 
ATOM     24  H   UNL     1      -7.331   7.384 -16.268  0.00  0.00    +0.000 HD
ATOM     25  H   UNL     1      -6.836   9.155 -13.375  0.00  0.00    +0.000 HD
ATOM     26  H   UNL     1      -5.357   8.448 -12.906  0.00  0.00    +0.000 HD
ENDBRANCH  19  20
ENDBRANCH   9  18
TORSDOF 3
ENDMDL
