MODEL 1
REMARK VINA RESULT:    -9.093      0.000      0.000
REMARK INTER + INTRA:         -12.359
REMARK INTER:                 -11.750
REMARK INTRA:                  -0.609
REMARK UNBOUND:                -0.609
REMARK  Name = 17f.sdf
REMARK  5 active torsions:
REMARK  status: ('A' for Active; 'I' for Inactive)
REMARK    1  A    between atoms: N_7  and  C_11
REMARK    2  A    between atoms: C_9  and  C_10
REMARK    3  A    between atoms: C_11  and  C_12
REMARK    4  A    between atoms: C_12  and  C_13
REMARK    5  A    between atoms: N_21  and  N_22
REMARK                            x       y       z     vdW  Elec       q    Type
REMARK                         _______ _______ _______ _____ _____    ______ ____
ROOT
ATOM      1  C   UNL     1      -9.663  13.032 -12.003  0.00  0.00    -0.061 A 
ATOM      2  C   UNL     1     -10.860  13.123 -12.705  0.00  0.00    -0.060 A 
ATOM      3  C   UNL     1     -11.047  12.435 -13.910  0.00  0.00    -0.038 A 
ATOM      4  C   UNL     1     -10.001  11.623 -14.374  0.00  0.00    +0.050 A 
ATOM      5  C   UNL     1      -8.844  11.415 -13.615  0.00  0.00    +0.009 A 
ATOM      6  C   UNL     1      -8.655  12.171 -12.438  0.00  0.00    -0.052 A 
ATOM      7  N   UNL     1      -9.832  10.916 -15.550  0.00  0.00    -0.338 N 
ATOM      8  C   UNL     1      -8.734  10.098 -15.444  0.00  0.00    +0.015 A 
ATOM      9  C   UNL     1      -8.116  10.354 -14.235  0.00  0.00    +0.020 A 
ENDROOT
BRANCH   9  10
ATOM     10  C   UNL     1      -6.989   9.647 -13.665  0.00  0.00    +0.055 C 
ATOM     11  N   UNL     1      -6.619   8.514 -14.174  0.00  0.00    -0.186 NA
BRANCH  11  12
ATOM     12  N   UNL     1      -5.625   7.881 -13.471  0.00  0.00    -0.191 N 
ATOM     13  C   UNL     1      -4.901   6.858 -14.028  0.00  0.00    +0.317 C 
ATOM     14  O   UNL     1      -4.095   6.187 -13.397  0.00  0.00    -0.251 OA
ATOM     15  N   UNL     1      -5.151   6.660 -15.345  0.00  0.00    -0.312 N 
ATOM     16  H   UNL     1      -5.429   8.167 -12.549  0.00  0.00    +0.000 HD
ATOM     17  H   UNL     1      -5.809   7.225 -15.811  0.00  0.00    +0.000 HD
ATOM     18  H   UNL     1      -4.674   5.951 -15.835  0.00  0.00    +0.000 HD
ENDBRANCH  11  12
ENDBRANCH   9  10
BRANCH   7  19
ATOM     19  C   UNL     1     -10.542  11.166 -16.806  0.00  0.00    +0.086 C 
BRANCH  19  20
ATOM     20  C   UNL     1     -11.628  10.166 -17.131  0.00  0.00    +0.183 C 
ATOM     21  O   UNL     1     -11.581   8.986 -16.804  0.00  0.00    -0.290 OA
BRANCH  20  22
ATOM     22  C   UNL     1     -12.835  10.660 -17.880  0.00  0.00    +0.019 A 
ATOM     23  C   UNL     1     -13.592   9.841 -18.729  0.00  0.00    -0.050 A 
ATOM     24  C   UNL     1     -14.656  10.379 -19.465  0.00  0.00    -0.047 A 
ATOM     25  C   UNL     1     -14.969  11.733 -19.349  0.00  0.00    +0.018 A 
ATOM     26  C   UNL     1     -14.256  12.547 -18.475  0.00  0.00    -0.047 A 
ATOM     27  C   UNL     1     -13.194  12.009 -17.738  0.00  0.00    -0.050 A 
ATOM     28 BR   UNL     1     -16.349  12.473 -20.407  0.00  0.00    -0.050 Br
ENDBRANCH  20  22
ENDBRANCH  19  20
ENDBRANCH   7  19
TORSDOF 5
ENDMDL
