MODEL 1
REMARK VINA RESULT:    -9.462      0.000      0.000
REMARK INTER + INTRA:         -12.638
REMARK INTER:                 -12.228
REMARK INTRA:                  -0.410
REMARK UNBOUND:                -0.410
REMARK  Name = 17g.sdf
REMARK  6 active torsions:
REMARK  status: ('A' for Active; 'I' for Inactive)
REMARK    1  A    between atoms: N_7  and  C_16
REMARK    2  A    between atoms: C_9  and  C_10
REMARK    3  A    between atoms: N_11  and  N_12
REMARK    4  A    between atoms: C_16  and  C_17
REMARK    5  A    between atoms: C_20  and  O_23
REMARK    6  A    between atoms: O_23  and  C_24
REMARK                            x       y       z     vdW  Elec       q    Type
REMARK                         _______ _______ _______ _____ _____    ______ ____
ROOT
ATOM      1  C   UNL     1      -8.911  12.609 -12.007  0.00  0.00    -0.061 A 
ATOM      2  C   UNL     1     -10.103  13.323 -12.044  0.00  0.00    -0.060 A 
ATOM      3  C   UNL     1     -10.962  13.232 -13.143  0.00  0.00    -0.038 A 
ATOM      4  C   UNL     1     -10.597  12.394 -14.211  0.00  0.00    +0.050 A 
ATOM      5  C   UNL     1      -9.424  11.629 -14.173  0.00  0.00    +0.009 A 
ATOM      6  C   UNL     1      -8.566  11.753 -13.056  0.00  0.00    -0.052 A 
ATOM      7  N   UNL     1     -11.203  12.142 -15.428  0.00  0.00    -0.342 N 
ATOM      8  C   UNL     1     -10.489  11.190 -16.112  0.00  0.00    +0.015 A 
ATOM      9  C   UNL     1      -9.380  10.842 -15.366  0.00  0.00    +0.020 A 
ENDROOT
BRANCH   9  10
ATOM     10  C   UNL     1      -8.382   9.862 -15.738  0.00  0.00    +0.055 C 
ATOM     11  N   UNL     1      -8.250   8.792 -15.023  0.00  0.00    -0.186 NA
BRANCH  11  12
ATOM     12  N   UNL     1      -7.271   7.931 -15.435  0.00  0.00    -0.191 N 
ATOM     13  C   UNL     1      -6.161   7.680 -14.660  0.00  0.00    +0.317 C 
ATOM     14  O   UNL     1      -5.286   6.889 -14.980  0.00  0.00    -0.251 OA
ATOM     15  N   UNL     1      -6.121   8.397 -13.510  0.00  0.00    -0.312 N 
ATOM     16  H   UNL     1      -7.361   7.479 -16.306  0.00  0.00    +0.000 HD
ATOM     17  H   UNL     1      -6.850   9.023 -13.295  0.00  0.00    +0.000 HD
ATOM     18  H   UNL     1      -5.364   8.291 -12.890  0.00  0.00    +0.000 HD
ENDBRANCH  11  12
ENDBRANCH   9  10
BRANCH   7  19
ATOM     19  C   UNL     1     -12.354  12.846 -15.990  0.00  0.00    +0.048 C 
BRANCH  19  20
ATOM     20  C   UNL     1     -12.939  12.115 -17.171  0.00  0.00    -0.028 A 
ATOM     21  C   UNL     1     -12.916  12.695 -18.443  0.00  0.00    -0.053 A 
ATOM     22  C   UNL     1     -13.575  12.083 -19.510  0.00  0.00    -0.020 A 
ATOM     23  C   UNL     1     -14.244  10.871 -19.337  0.00  0.00    +0.120 A 
ATOM     24  C   UNL     1     -14.217  10.251 -18.091  0.00  0.00    -0.020 A 
ATOM     25  C   UNL     1     -13.570  10.871 -17.012  0.00  0.00    -0.053 A 
BRANCH  23  26
ATOM     26  O   UNL     1     -14.932  10.446 -20.438  0.00  0.00    -0.495 OA
ATOM     27  C   UNL     1     -16.192  11.048 -20.694  0.00  0.00    +0.079 C 
ENDBRANCH  23  26
ENDBRANCH  19  20
ENDBRANCH   7  19
TORSDOF 5
ENDMDL
