MODEL 1
REMARK VINA RESULT:    -9.509      0.000      0.000
REMARK INTER + INTRA:         -13.322
REMARK INTER:                 -12.844
REMARK INTRA:                  -0.478
REMARK UNBOUND:                -0.478
REMARK  Name = 17j.sdf
REMARK  8 active torsions:
REMARK  status: ('A' for Active; 'I' for Inactive)
REMARK    1  A    between atoms: N_7  and  C_16
REMARK    2  A    between atoms: C_9  and  C_10
REMARK    3  A    between atoms: N_11  and  N_12
REMARK    4  A    between atoms: C_16  and  C_17
REMARK    5  A    between atoms: C_19  and  O_23
REMARK    6  A    between atoms: C_21  and  O_25
REMARK    7  A    between atoms: O_23  and  C_24
REMARK    8  A    between atoms: O_25  and  C_26
REMARK                            x       y       z     vdW  Elec       q    Type
REMARK                         _______ _______ _______ _____ _____    ______ ____
ROOT
ATOM      1  C   UNL     1      -8.892  12.670 -11.952  0.00  0.00    -0.061 A 
ATOM      2  C   UNL     1     -10.075  13.400 -12.002  0.00  0.00    -0.060 A 
ATOM      3  C   UNL     1     -10.925  13.318 -13.109  0.00  0.00    -0.038 A 
ATOM      4  C   UNL     1     -10.551  12.481 -14.173  0.00  0.00    +0.050 A 
ATOM      5  C   UNL     1      -9.387  11.703 -14.127  0.00  0.00    +0.009 A 
ATOM      6  C   UNL     1      -8.544  11.811 -12.998  0.00  0.00    -0.052 A 
ATOM      7  N   UNL     1     -11.152  12.233 -15.392  0.00  0.00    -0.342 N 
ATOM      8  C   UNL     1     -10.442  11.281 -16.077  0.00  0.00    +0.015 A 
ATOM      9  C   UNL     1      -9.342  10.919 -15.323  0.00  0.00    +0.020 A 
ENDROOT
BRANCH   9  10
ATOM     10  C   UNL     1      -8.353   9.928 -15.693  0.00  0.00    +0.055 C 
ATOM     11  N   UNL     1      -8.214   8.873 -14.957  0.00  0.00    -0.186 NA
BRANCH  11  12
ATOM     12  N   UNL     1      -7.246   7.996 -15.368  0.00  0.00    -0.191 N 
ATOM     13  C   UNL     1      -6.125   7.758 -14.614  0.00  0.00    +0.317 C 
ATOM     14  O   UNL     1      -5.252   6.965 -14.945  0.00  0.00    -0.251 OA
ATOM     15  N   UNL     1      -6.074   8.470 -13.461  0.00  0.00    -0.312 N 
ATOM     16  H   UNL     1      -7.358   7.525 -16.226  0.00  0.00    +0.000 HD
ATOM     17  H   UNL     1      -6.799   9.096 -13.237  0.00  0.00    +0.000 HD
ATOM     18  H   UNL     1      -5.310   8.362 -12.849  0.00  0.00    +0.000 HD
ENDBRANCH  11  12
ENDBRANCH   9  10
BRANCH   7  19
ATOM     19  C   UNL     1     -12.336  12.910 -15.926  0.00  0.00    +0.049 C 
BRANCH  19  20
ATOM     20  C   UNL     1     -13.044  12.170 -17.041  0.00  0.00    -0.021 A 
ATOM     21  C   UNL     1     -13.455  10.834 -16.936  0.00  0.00    -0.015 A 
ATOM     22  C   UNL     1     -14.026  10.170 -18.024  0.00  0.00    +0.124 A 
ATOM     23  C   UNL     1     -14.241  10.859 -19.220  0.00  0.00    +0.022 A 
ATOM     24  C   UNL     1     -13.884  12.201 -19.337  0.00  0.00    +0.124 A 
ATOM     25  C   UNL     1     -13.289  12.847 -18.249  0.00  0.00    -0.015 A 
BRANCH  22  26
ATOM     26  O   UNL     1     -14.403   8.854 -18.041  0.00  0.00    -0.495 OA
ATOM     27  C   UNL     1     -13.610   7.955 -17.272  0.00  0.00    +0.079 C 
ENDBRANCH  22  26
BRANCH  24  28
ATOM     28  O   UNL     1     -14.056  12.984 -20.446  0.00  0.00    -0.495 OA
ATOM     29  C   UNL     1     -15.283  13.700 -20.541  0.00  0.00    +0.079 C 
ENDBRANCH  24  28
ENDBRANCH  19  20
ENDBRANCH   7  19
TORSDOF 6
ENDMDL
