MODEL 1
REMARK VINA RESULT:    -9.529      0.000      0.000
REMARK INTER + INTRA:         -14.139
REMARK INTER:                 -13.429
REMARK INTRA:                  -0.710
REMARK UNBOUND:                -0.710
REMARK  Name = 17k.sdf
REMARK  10 active torsions:
REMARK  status: ('A' for Active; 'I' for Inactive)
REMARK    1  A    between atoms: N_7  and  C_16
REMARK    2  A    between atoms: C_9  and  C_10
REMARK    3  A    between atoms: N_11  and  N_12
REMARK    4  A    between atoms: C_16  and  C_17
REMARK    5  A    between atoms: C_19  and  O_23
REMARK    6  A    between atoms: C_20  and  O_27
REMARK    7  A    between atoms: C_21  and  O_25
REMARK    8  A    between atoms: O_23  and  C_24
REMARK    9  A    between atoms: O_25  and  C_26
REMARK   10  A    between atoms: O_27  and  C_28
REMARK                            x       y       z     vdW  Elec       q    Type
REMARK                         _______ _______ _______ _____ _____    ______ ____
ROOT
ATOM      1  C   UNL     1      -8.909  12.635 -11.954  0.00  0.00    -0.061 A 
ATOM      2  C   UNL     1     -10.104  13.347 -11.990  0.00  0.00    -0.060 A 
ATOM      3  C   UNL     1     -10.963  13.256 -13.089  0.00  0.00    -0.038 A 
ATOM      4  C   UNL     1     -10.584  12.432 -14.161  0.00  0.00    +0.050 A 
ATOM      5  C   UNL     1      -9.408  11.671 -14.129  0.00  0.00    +0.009 A 
ATOM      6  C   UNL     1      -8.557  11.788 -13.008  0.00  0.00    -0.052 A 
ATOM      7  N   UNL     1     -11.194  12.183 -15.376  0.00  0.00    -0.342 N 
ATOM      8  C   UNL     1     -10.473  11.247 -16.074  0.00  0.00    +0.015 A 
ATOM      9  C   UNL     1      -9.363  10.894 -15.329  0.00  0.00    +0.020 A 
ENDROOT
BRANCH   9  10
ATOM     10  C   UNL     1      -8.367   9.916 -15.709  0.00  0.00    +0.055 C 
ATOM     11  N   UNL     1      -8.266   8.824 -15.021  0.00  0.00    -0.186 NA
BRANCH  11  12
ATOM     12  N   UNL     1      -7.288   7.961 -15.435  0.00  0.00    -0.191 N 
ATOM     13  C   UNL     1      -6.161   7.744 -14.684  0.00  0.00    +0.317 C 
ATOM     14  O   UNL     1      -5.248   7.013 -15.048  0.00  0.00    -0.251 OA
ATOM     15  N   UNL     1      -6.144   8.405 -13.501  0.00  0.00    -0.312 N 
ATOM     16  H   UNL     1      -7.397   7.486 -16.290  0.00  0.00    +0.000 HD
ATOM     17  H   UNL     1      -6.900   8.981 -13.248  0.00  0.00    +0.000 HD
ATOM     18  H   UNL     1      -5.375   8.308 -12.894  0.00  0.00    +0.000 HD
ENDBRANCH  11  12
ENDBRANCH   9  10
BRANCH   7  19
ATOM     19  C   UNL     1     -12.395  12.839 -15.893  0.00  0.00    +0.049 C 
BRANCH  19  20
ATOM     20  C   UNL     1     -13.106  12.083 -16.995  0.00  0.00    -0.021 A 
ATOM     21  C   UNL     1     -13.536  10.759 -16.870  0.00  0.00    -0.011 A 
ATOM     22  C   UNL     1     -14.106  10.056 -17.948  0.00  0.00    +0.165 A 
ATOM     23  C   UNL     1     -14.305  10.708 -19.188  0.00  0.00    +0.204 A 
ATOM     24  C   UNL     1     -13.936  12.067 -19.303  0.00  0.00    +0.165 A 
ATOM     25  C   UNL     1     -13.341  12.727 -18.213  0.00  0.00    -0.011 A 
BRANCH  22  26
ATOM     26  O   UNL     1     -14.478   8.740 -17.828  0.00  0.00    -0.491 OA
ATOM     27  C   UNL     1     -13.548   7.814 -17.280  0.00  0.00    +0.079 C 
ENDBRANCH  22  26
BRANCH  24  28
ATOM     28  O   UNL     1     -14.065  12.908 -20.381  0.00  0.00    -0.491 OA
ATOM     29  C   UNL     1     -15.254  13.669 -20.542  0.00  0.00    +0.079 C 
ENDBRANCH  24  28
BRANCH  23  30
ATOM     30  O   UNL     1     -14.843  10.139 -20.312  0.00  0.00    -0.488 OA
ATOM     31  C   UNL     1     -16.246  10.103 -20.514  0.00  0.00    +0.079 C 
ENDBRANCH  23  30
ENDBRANCH  19  20
ENDBRANCH   7  19
TORSDOF 7
ENDMDL
