MODEL 1
REMARK VINA RESULT:   -10.156      0.000      0.000
REMARK INTER + INTRA:         -13.173
REMARK INTER:                 -12.530
REMARK INTRA:                  -0.643
REMARK UNBOUND:                -0.643
REMARK  Name = 18d.sdf
REMARK  4 active torsions:
REMARK  status: ('A' for Active; 'I' for Inactive)
REMARK    1  A    between atoms: C_9  and  C_10
REMARK    2  A    between atoms: N_11  and  N_12
REMARK    3  A    between atoms: C_13  and  C_15
REMARK    4  A    between atoms: C_16  and  C_17
REMARK                            x       y       z     vdW  Elec       q    Type
REMARK                         _______ _______ _______ _____ _____    ______ ____
ROOT
ATOM      1  C   UNL     1     -15.610   8.355 -21.299  0.00  0.00    -0.061 A 
ATOM      2  C   UNL     1     -16.618   8.946 -22.048  0.00  0.00    -0.060 A 
ATOM      3  C   UNL     1     -16.944  10.295 -21.875  0.00  0.00    -0.037 A 
ATOM      4  C   UNL     1     -16.240  11.041 -20.911  0.00  0.00    +0.057 A 
ATOM      5  C   UNL     1     -15.205  10.467 -20.155  0.00  0.00    +0.009 A 
ATOM      6  C   UNL     1     -14.896   9.103 -20.356  0.00  0.00    -0.052 A 
ATOM      7  N   UNL     1     -16.347  12.383 -20.539  0.00  0.00    -0.282 N 
ATOM      8  C   UNL     1     -15.415  12.615 -19.542  0.00  0.00    +0.023 A 
ATOM      9  C   UNL     1     -14.680  11.475 -19.291  0.00  0.00    +0.020 A 
ATOM     10  C   UNL     1     -17.241  13.357 -21.052  0.00  0.00    +0.263 C 
ATOM     11  O   UNL     1     -18.353  12.980 -21.437  0.00  0.00    -0.267 OA
ENDROOT
BRANCH  10  12
ATOM     12  C   UNL     1     -16.918  14.801 -21.094  0.00  0.00    +0.040 A 
ATOM     13  C   UNL     1     -17.386  15.662 -20.092  0.00  0.00    -0.049 A 
ATOM     14  C   UNL     1     -17.229  17.036 -20.232  0.00  0.00    -0.061 A 
ATOM     15  C   UNL     1     -16.560  17.550 -21.341  0.00  0.00    -0.062 A 
ATOM     16  C   UNL     1     -16.013  16.689 -22.296  0.00  0.00    -0.061 A 
ATOM     17  C   UNL     1     -16.183  15.312 -22.171  0.00  0.00    -0.049 A 
ENDBRANCH  10  12
BRANCH   9  18
ATOM     18  C   UNL     1     -13.605  11.377 -18.318  0.00  0.00    +0.055 C 
ATOM     19  N   UNL     1     -13.550  12.239 -17.353  0.00  0.00    -0.187 NA
BRANCH  19  20
ATOM     20  N   UNL     1     -12.518  12.116 -16.461  0.00  0.00    -0.203 N 
ATOM     21  C   UNL     1     -12.463  12.965 -15.362  0.00  0.00    +0.263 C 
ATOM     22  O   UNL     1     -13.282  13.847 -15.105  0.00  0.00    -0.268 OA
ATOM     23  H   UNL     1     -11.823  11.433 -16.598  0.00  0.00    +0.000 HD
BRANCH  21  24
ATOM     24  C   UNL     1     -11.330  12.740 -14.420  0.00  0.00    +0.038 A 
ATOM     25  C   UNL     1     -11.357  13.210 -13.100  0.00  0.00    -0.050 A 
ATOM     26  C   UNL     1     -10.260  12.996 -12.261  0.00  0.00    -0.061 A 
ATOM     27  C   UNL     1      -9.143  12.301 -12.728  0.00  0.00    -0.062 A 
ATOM     28  C   UNL     1      -9.127  11.798 -14.028  0.00  0.00    -0.061 A 
ATOM     29  C   UNL     1     -10.218  12.013 -14.871  0.00  0.00    -0.050 A 
ENDBRANCH  21  24
ENDBRANCH  19  20
ENDBRANCH   9  18
TORSDOF 4
ENDMDL
