MODEL 1
REMARK VINA RESULT:    -6.703      0.000      0.000
REMARK INTER + INTRA:          -7.147
REMARK INTER:                  -7.094
REMARK INTRA:                  -0.053
REMARK UNBOUND:                -0.053
REMARK  Name = 1.sdf
REMARK  1 active torsions:
REMARK  status: ('A' for Active; 'I' for Inactive)
REMARK    1  A    between atoms: C_9  and  C_10
REMARK                            x       y       z     vdW  Elec       q    Type
REMARK                         _______ _______ _______ _____ _____    ______ ____
ROOT
ATOM      1  C   UNL     1     -10.858  12.915 -13.118  0.00  0.00    -0.061 A 
ATOM      2  C   UNL     1     -10.147  13.335 -11.999  0.00  0.00    -0.060 A 
ATOM      3  C   UNL     1      -8.874  12.830 -11.723  0.00  0.00    -0.038 A 
ATOM      4  C   UNL     1      -8.344  11.883 -12.608  0.00  0.00    +0.047 A 
ATOM      5  C   UNL     1      -9.032  11.437 -13.739  0.00  0.00    +0.010 A 
ATOM      6  C   UNL     1     -10.313  11.970 -13.996  0.00  0.00    -0.052 A 
ATOM      7  N   UNL     1      -7.137  11.224 -12.580  0.00  0.00    -0.360 N 
ATOM      8  C   UNL     1      -7.040  10.372 -13.646  0.00  0.00    +0.013 A 
ATOM      9  C   UNL     1      -8.197  10.477 -14.394  0.00  0.00    +0.039 A 
ATOM     10  H   UNL     1      -6.443  11.348 -11.892  0.00  0.00    +0.000 HD
ENDROOT
BRANCH   9  11
ATOM     11  C   UNL     1      -8.477   9.732 -15.607  0.00  0.00    +0.152 C 
ATOM     12  O   UNL     1      -8.523  10.235 -16.726  0.00  0.00    -0.296 OA
ENDBRANCH   9  11
TORSDOF 1
ENDMDL
