MODEL 1
REMARK VINA RESULT:    -8.651      0.000      0.000
REMARK INTER + INTRA:         -11.837
REMARK INTER:                 -11.179
REMARK INTRA:                  -0.658
REMARK UNBOUND:                -0.658
REMARK  Name = 21.sdf
REMARK  5 active torsions:
REMARK  status: ('A' for Active; 'I' for Inactive)
REMARK    1  A    between atoms: C_9  and  C_10
REMARK    2  A    between atoms: C_10  and  O_11
REMARK    3  A    between atoms: O_11  and  C_12
REMARK    4  A    between atoms: C_12  and  C_13
REMARK    5  A    between atoms: C_13  and  C_14
REMARK                            x       y       z     vdW  Elec       q    Type
REMARK                         _______ _______ _______ _____ _____    ______ ____
ROOT
ATOM      1  C   UNL     1     -12.024  13.121 -13.701  0.00  0.00    +0.075 C 
ENDROOT
BRANCH   1  10
ATOM      2  C   UNL     1      -8.305  10.380 -14.695  0.00  0.00    -0.061 A 
ATOM      3  C   UNL     1      -7.305  10.464 -13.729  0.00  0.00    -0.060 A 
ATOM      4  C   UNL     1      -7.422  11.356 -12.659  0.00  0.00    -0.038 A 
ATOM      5  C   UNL     1      -8.587  12.127 -12.571  0.00  0.00    +0.047 A 
ATOM      6  C   UNL     1      -9.624  12.046 -13.503  0.00  0.00    +0.005 A 
ATOM      7  C   UNL     1      -9.456  11.177 -14.601  0.00  0.00    -0.052 A 
ATOM      8  N   UNL     1      -8.960  13.071 -11.643  0.00  0.00    -0.360 N 
ATOM      9  C   UNL     1     -10.207  13.554 -11.930  0.00  0.00    +0.008 A 
ATOM     10  C   UNL     1     -10.678  12.920 -13.067  0.00  0.00    +0.003 A 
ATOM     11  H   UNL     1      -8.409  13.358 -10.881  0.00  0.00    +0.000 HD
ENDBRANCH   1  10
BRANCH   1  12
ATOM     12  O   UNL     1     -11.896  13.334 -15.114  0.00  0.00    -0.367 OA
BRANCH  12  13
ATOM     13  C   UNL     1     -13.103  13.103 -15.822  0.00  0.00    +0.111 C 
BRANCH  13  14
ATOM     14  C   UNL     1     -12.873  12.387 -17.152  0.00  0.00    +0.189 C 
ATOM     15  O   UNL     1     -12.714  13.022 -18.201  0.00  0.00    -0.290 OA
BRANCH  14  16
ATOM     16  C   UNL     1     -12.735  10.901 -17.182  0.00  0.00    +0.020 A 
ATOM     17  C   UNL     1     -11.488  10.266 -17.194  0.00  0.00    -0.050 A 
ATOM     18  C   UNL     1     -11.408   8.874 -17.304  0.00  0.00    -0.047 A 
ATOM     19  C   UNL     1     -12.573   8.116 -17.402  0.00  0.00    +0.018 A 
ATOM     20  C   UNL     1     -13.822   8.732 -17.366  0.00  0.00    -0.047 A 
ATOM     21  C   UNL     1     -13.902  10.122 -17.257  0.00  0.00    -0.050 A 
ATOM     22 BR   UNL     1     -12.456   6.244 -17.633  0.00  0.00    -0.050 Br
ENDBRANCH  14  16
ENDBRANCH  13  14
ENDBRANCH  12  13
ENDBRANCH   1  12
TORSDOF 5
ENDMDL
