MODEL 1
REMARK VINA RESULT:    -9.570      0.000      0.000
REMARK INTER + INTRA:         -13.597
REMARK INTER:                 -12.647
REMARK INTRA:                  -0.951
REMARK UNBOUND:                -0.951
REMARK  Name = 24a.sdf
REMARK  6 active torsions:
REMARK  status: ('A' for Active; 'I' for Inactive)
REMARK    1  A    between atoms: N_7  and  C_10
REMARK    2  A    between atoms: C_9  and  C_18
REMARK    3  A    between atoms: C_10  and  C_11
REMARK    4  A    between atoms: N_19  and  N_20
REMARK    5  A    between atoms: C_21  and  C_23
REMARK    6  A    between atoms: C_26  and  O_29
REMARK                            x       y       z     vdW  Elec       q    Type
REMARK                         _______ _______ _______ _____ _____    ______ ____
ROOT
ATOM      1  C   UNL     1     -16.533   9.434 -19.969  0.00  0.00    -0.061 A 
ATOM      2  C   UNL     1     -17.180   9.896 -21.105  0.00  0.00    -0.060 A 
ATOM      3  C   UNL     1     -16.838  11.129 -21.687  0.00  0.00    -0.038 A 
ATOM      4  C   UNL     1     -15.842  11.917 -21.063  0.00  0.00    +0.050 A 
ATOM      5  C   UNL     1     -15.137  11.432 -19.951  0.00  0.00    +0.009 A 
ATOM      6  C   UNL     1     -15.494  10.176 -19.404  0.00  0.00    -0.052 A 
ATOM      7  N   UNL     1     -15.373  13.194 -21.322  0.00  0.00    -0.342 N 
ATOM      8  C   UNL     1     -14.327  13.469 -20.467  0.00  0.00    +0.015 A 
ATOM      9  C   UNL     1     -14.133  12.395 -19.621  0.00  0.00    +0.020 A 
ENDROOT
BRANCH   9  10
ATOM     10  C   UNL     1     -13.107  12.282 -18.601  0.00  0.00    +0.055 C 
ATOM     11  N   UNL     1     -13.432  12.277 -17.349  0.00  0.00    -0.187 NA
BRANCH  11  12
ATOM     12  N   UNL     1     -12.396  12.193 -16.459  0.00  0.00    -0.203 N 
ATOM     13  C   UNL     1     -12.383  13.015 -15.339  0.00  0.00    +0.263 C 
ATOM     14  O   UNL     1     -13.257  13.837 -15.061  0.00  0.00    -0.268 OA
ATOM     15  H   UNL     1     -11.665  11.551 -16.612  0.00  0.00    +0.000 HD
BRANCH  13  16
ATOM     16  C   UNL     1     -11.237  12.847 -14.401  0.00  0.00    +0.039 A 
ATOM     17  C   UNL     1     -10.045  12.211 -14.775  0.00  0.00    -0.046 A 
ATOM     18  C   UNL     1      -9.009  12.054 -13.847  0.00  0.00    -0.019 A 
ATOM     19  C   UNL     1      -9.165  12.543 -12.552  0.00  0.00    +0.117 A 
ATOM     20  C   UNL     1     -10.323  13.213 -12.178  0.00  0.00    -0.019 A 
ATOM     21  C   UNL     1     -11.358  13.367 -13.103  0.00  0.00    -0.046 A 
BRANCH  19  22
ATOM     22  O   UNL     1      -8.192  12.386 -11.611  0.00  0.00    -0.507 OA
ATOM     23  H   UNL     1      -7.924  11.526 -11.353  0.00  0.00    +0.000 HD
ENDBRANCH  19  22
ENDBRANCH  13  16
ENDBRANCH  11  12
ENDBRANCH   9  10
BRANCH   7  24
ATOM     24  C   UNL     1     -15.938  14.195 -22.233  0.00  0.00    +0.048 C 
BRANCH  24  25
ATOM     25  C   UNL     1     -16.738  15.255 -21.511  0.00  0.00    -0.028 A 
ATOM     26  C   UNL     1     -18.038  14.980 -21.063  0.00  0.00    -0.056 A 
ATOM     27  C   UNL     1     -18.860  16.008 -20.599  0.00  0.00    -0.047 A 
ATOM     28  C   UNL     1     -18.371  17.311 -20.538  0.00  0.00    +0.018 A 
ATOM     29  C   UNL     1     -17.042  17.580 -20.858  0.00  0.00    -0.047 A 
ATOM     30  C   UNL     1     -16.227  16.553 -21.341  0.00  0.00    -0.056 A 
ATOM     31 BR   UNL     1     -19.540  18.731 -20.105  0.00  0.00    -0.050 Br
ENDBRANCH  24  25
ENDBRANCH   7  24
TORSDOF 6
ENDMDL
