MODEL 1
REMARK VINA RESULT:    -9.542      0.000      0.000
REMARK INTER + INTRA:         -13.588
REMARK INTER:                 -12.610
REMARK INTRA:                  -0.978
REMARK UNBOUND:                -0.978
REMARK  Name = 24c.sdf
REMARK  6 active torsions:
REMARK  status: ('A' for Active; 'I' for Inactive)
REMARK    1  A    between atoms: N_7  and  C_10
REMARK    2  A    between atoms: C_9  and  C_18
REMARK    3  A    between atoms: C_10  and  C_11
REMARK    4  A    between atoms: N_19  and  N_20
REMARK    5  A    between atoms: C_21  and  C_23
REMARK    6  A    between atoms: C_26  and  O_29
REMARK                            x       y       z     vdW  Elec       q    Type
REMARK                         _______ _______ _______ _____ _____    ______ ____
ROOT
ATOM      1  C   UNL     1     -17.088   9.930 -20.413  0.00  0.00    -0.061 A 
ATOM      2  C   UNL     1     -17.742  10.495 -21.501  0.00  0.00    -0.060 A 
ATOM      3  C   UNL     1     -17.360  11.745 -21.999  0.00  0.00    -0.038 A 
ATOM      4  C   UNL     1     -16.292  12.414 -21.378  0.00  0.00    +0.050 A 
ATOM      5  C   UNL     1     -15.587  11.842 -20.311  0.00  0.00    +0.009 A 
ATOM      6  C   UNL     1     -16.007  10.587 -19.818  0.00  0.00    -0.052 A 
ATOM      7  N   UNL     1     -15.728  13.657 -21.610  0.00  0.00    -0.342 N 
ATOM      8  C   UNL     1     -14.653  13.841 -20.779  0.00  0.00    +0.015 A 
ATOM      9  C   UNL     1     -14.525  12.734 -19.963  0.00  0.00    +0.020 A 
ENDROOT
BRANCH   9  10
ATOM     10  C   UNL     1     -13.502  12.530 -18.955  0.00  0.00    +0.055 C 
ATOM     11  N   UNL     1     -13.830  12.477 -17.706  0.00  0.00    -0.187 NA
BRANCH  11  12
ATOM     12  N   UNL     1     -12.800  12.287 -16.827  0.00  0.00    -0.203 N 
ATOM     13  C   UNL     1     -12.736  13.055 -15.675  0.00  0.00    +0.263 C 
ATOM     14  O   UNL     1     -13.547  13.915 -15.347  0.00  0.00    -0.268 OA
ATOM     15  H   UNL     1     -12.109  11.610 -17.011  0.00  0.00    +0.000 HD
BRANCH  13  16
ATOM     16  C   UNL     1     -11.590  12.759 -14.763  0.00  0.00    +0.039 A 
ATOM     17  C   UNL     1     -11.545  13.218 -13.436  0.00  0.00    -0.046 A 
ATOM     18  C   UNL     1     -10.440  12.923 -12.629  0.00  0.00    -0.019 A 
ATOM     19  C   UNL     1      -9.394  12.164 -13.146  0.00  0.00    +0.117 A 
ATOM     20  C   UNL     1      -9.440  11.679 -14.447  0.00  0.00    -0.019 A 
ATOM     21  C   UNL     1     -10.540  11.973 -15.255  0.00  0.00    -0.046 A 
BRANCH  19  22
ATOM     22  O   UNL     1      -8.295  11.864 -12.398  0.00  0.00    -0.507 OA
ATOM     23  H   UNL     1      -7.937  12.503 -11.813  0.00  0.00    +0.000 HD
ENDBRANCH  19  22
ENDBRANCH  13  16
ENDBRANCH  11  12
ENDBRANCH   9  10
BRANCH   7  24
ATOM     24  C   UNL     1     -16.240  14.684 -22.515  0.00  0.00    +0.048 C 
BRANCH  24  25
ATOM     25  C   UNL     1     -17.050  15.723 -21.780  0.00  0.00    -0.028 A 
ATOM     26  C   UNL     1     -18.381  15.467 -21.420  0.00  0.00    -0.055 A 
ATOM     27  C   UNL     1     -19.162  16.466 -20.834  0.00  0.00    -0.043 A 
ATOM     28  C   UNL     1     -18.612  17.723 -20.593  0.00  0.00    +0.041 A 
ATOM     29  C   UNL     1     -17.277  17.978 -20.898  0.00  0.00    -0.043 A 
ATOM     30  C   UNL     1     -16.498  16.981 -21.489  0.00  0.00    -0.055 A 
ATOM     31 CL   UNL     1     -19.595  18.972 -19.935  0.00  0.00    -0.084 Cl
ENDBRANCH  24  25
ENDBRANCH   7  24
TORSDOF 6
ENDMDL
