MODEL 1
REMARK VINA RESULT:    -9.462      0.000      0.000
REMARK INTER + INTRA:         -13.732
REMARK INTER:                 -12.780
REMARK INTRA:                  -0.951
REMARK UNBOUND:                -0.951
REMARK  Name = 26c.sdf
REMARK  7 active torsions:
REMARK  status: ('A' for Active; 'I' for Inactive)
REMARK    1  A    between atoms: N_7  and  C_10
REMARK    2  A    between atoms: C_9  and  C_18
REMARK    3  A    between atoms: C_10  and  C_11
REMARK    4  A    between atoms: N_19  and  N_20
REMARK    5  A    between atoms: C_21  and  C_23
REMARK    6  A    between atoms: C_26  and  O_29
REMARK    7  A    between atoms: C_28  and  O_30
REMARK                            x       y       z     vdW  Elec       q    Type
REMARK                         _______ _______ _______ _____ _____    ______ ____
ROOT
ATOM      1  C   UNL     1     -17.065   9.944 -20.439  0.00  0.00    -0.061 A 
ATOM      2  C   UNL     1     -17.680  10.510 -21.550  0.00  0.00    -0.060 A 
ATOM      3  C   UNL     1     -17.272  11.753 -22.045  0.00  0.00    -0.038 A 
ATOM      4  C   UNL     1     -16.223  12.424 -21.391  0.00  0.00    +0.050 A 
ATOM      5  C   UNL     1     -15.552  11.845 -20.304  0.00  0.00    +0.009 A 
ATOM      6  C   UNL     1     -15.994  10.593 -19.819  0.00  0.00    -0.052 A 
ATOM      7  N   UNL     1     -15.656  13.669 -21.596  0.00  0.00    -0.342 N 
ATOM      8  C   UNL     1     -14.599  13.842 -20.741  0.00  0.00    +0.015 A 
ATOM      9  C   UNL     1     -14.496  12.731 -19.928  0.00  0.00    +0.020 A 
ENDROOT
BRANCH   9  10
ATOM     10  C   UNL     1     -13.496  12.531 -18.899  0.00  0.00    +0.055 C 
ATOM     11  N   UNL     1     -13.870  12.449 -17.662  0.00  0.00    -0.187 NA
BRANCH  11  12
ATOM     12  N   UNL     1     -12.852  12.270 -16.768  0.00  0.00    -0.203 N 
ATOM     13  C   UNL     1     -12.752  13.053 -15.629  0.00  0.00    +0.267 C 
ATOM     14  O   UNL     1     -13.534  13.950 -15.325  0.00  0.00    -0.268 OA
ATOM     15  H   UNL     1     -12.178  11.573 -16.935  0.00  0.00    +0.000 HD
BRANCH  13  16
ATOM     16  C   UNL     1     -11.587  12.749 -14.731  0.00  0.00    +0.080 A 
ATOM     17  C   UNL     1     -11.576  13.344 -13.457  0.00  0.00    -0.043 A 
ATOM     18  C   UNL     1     -10.524  13.114 -12.564  0.00  0.00    -0.019 A 
ATOM     19  C   UNL     1      -9.478  12.283 -12.946  0.00  0.00    +0.120 A 
ATOM     20  C   UNL     1      -9.468  11.675 -14.195  0.00  0.00    +0.022 A 
ATOM     21  C   UNL     1     -10.520  11.907 -15.088  0.00  0.00    +0.132 A 
BRANCH  19  22
ATOM     22  O   UNL     1      -8.423  12.034 -12.118  0.00  0.00    -0.507 OA
ATOM     23  H   UNL     1      -8.314  11.184 -11.741  0.00  0.00    +0.000 HD
ENDBRANCH  19  22
BRANCH  21  24
ATOM     24  O   UNL     1     -10.480  11.299 -16.316  0.00  0.00    -0.506 OA
ATOM     25  H   UNL     1     -10.898  10.470 -16.442  0.00  0.00    +0.000 HD
ENDBRANCH  21  24
ENDBRANCH  13  16
ENDBRANCH  11  12
ENDBRANCH   9  10
BRANCH   7  26
ATOM     26  C   UNL     1     -16.156  14.728 -22.474  0.00  0.00    +0.048 C 
BRANCH  26  27
ATOM     27  C   UNL     1     -16.984  15.739 -21.719  0.00  0.00    -0.028 A 
ATOM     28  C   UNL     1     -18.317  15.459 -21.389  0.00  0.00    -0.055 A 
ATOM     29  C   UNL     1     -19.129  16.444 -20.825  0.00  0.00    -0.043 A 
ATOM     30  C   UNL     1     -18.607  17.709 -20.568  0.00  0.00    +0.041 A 
ATOM     31  C   UNL     1     -17.264  17.980 -20.817  0.00  0.00    -0.043 A 
ATOM     32  C   UNL     1     -16.453  16.997 -21.389  0.00  0.00    -0.055 A 
ATOM     33 CL   UNL     1     -19.637  18.951 -19.970  0.00  0.00    -0.084 Cl
ENDBRANCH  26  27
ENDBRANCH   7  26
TORSDOF 7
ENDMDL
