MODEL 1
REMARK VINA RESULT:    -9.603      0.000      0.000
REMARK INTER + INTRA:         -13.646
REMARK INTER:                 -12.690
REMARK INTRA:                  -0.956
REMARK UNBOUND:                -0.956
REMARK  Name = 27c.sdf
REMARK  6 active torsions:
REMARK  status: ('A' for Active; 'I' for Inactive)
REMARK    1  A    between atoms: N_7  and  C_10
REMARK    2  A    between atoms: C_9  and  C_18
REMARK    3  A    between atoms: C_10  and  C_11
REMARK    4  A    between atoms: N_19  and  N_20
REMARK    5  A    between atoms: C_21  and  C_23
REMARK    6  A    between atoms: C_26  and  N_29
REMARK                            x       y       z     vdW  Elec       q    Type
REMARK                         _______ _______ _______ _____ _____    ______ ____
ROOT
ATOM      1  C   UNL     1     -16.949   9.870 -20.405  0.00  0.00    -0.061 A 
ATOM      2  C   UNL     1     -17.602  10.422 -21.499  0.00  0.00    -0.060 A 
ATOM      3  C   UNL     1     -17.237  11.677 -21.999  0.00  0.00    -0.038 A 
ATOM      4  C   UNL     1     -16.188  12.370 -21.368  0.00  0.00    +0.050 A 
ATOM      5  C   UNL     1     -15.480  11.806 -20.300  0.00  0.00    +0.009 A 
ATOM      6  C   UNL     1     -15.880  10.545 -19.807  0.00  0.00    -0.052 A 
ATOM      7  N   UNL     1     -15.653  13.626 -21.588  0.00  0.00    -0.342 N 
ATOM      8  C   UNL     1     -14.584  13.827 -20.750  0.00  0.00    +0.015 A 
ATOM      9  C   UNL     1     -14.439  12.715 -19.940  0.00  0.00    +0.020 A 
ENDROOT
BRANCH   9  10
ATOM     10  C   UNL     1     -13.413  12.523 -18.936  0.00  0.00    +0.055 C 
ATOM     11  N   UNL     1     -13.742  12.408 -17.691  0.00  0.00    -0.187 NA
BRANCH  11  12
ATOM     12  N   UNL     1     -12.707  12.239 -16.807  0.00  0.00    -0.203 N 
ATOM     13  C   UNL     1     -12.667  13.003 -15.648  0.00  0.00    +0.263 C 
ATOM     14  O   UNL     1     -13.506  13.838 -15.323  0.00  0.00    -0.268 OA
ATOM     15  H   UNL     1     -11.999  11.580 -16.991  0.00  0.00    +0.000 HD
BRANCH  13  16
ATOM     16  C   UNL     1     -11.523  12.733 -14.727  0.00  0.00    +0.038 A 
ATOM     17  C   UNL     1     -10.407  11.982 -15.110  0.00  0.00    -0.048 A 
ATOM     18  C   UNL     1      -9.368  11.757 -14.197  0.00  0.00    -0.040 A 
ATOM     19  C   UNL     1      -9.441  12.245 -12.889  0.00  0.00    +0.025 A 
ATOM     20  C   UNL     1     -10.514  13.068 -12.543  0.00  0.00    -0.040 A 
ATOM     21  C   UNL     1     -11.559  13.297 -13.447  0.00  0.00    -0.048 A 
BRANCH  19  22
ATOM     22  N   UNL     1      -8.350  12.111 -12.025  0.00  0.00    -0.358 N 
ATOM     23  H   UNL     1      -8.077  12.867 -11.455  0.00  0.00    +0.000 HD
ATOM     24  H   UNL     1      -7.855  11.261 -11.984  0.00  0.00    +0.000 HD
ENDBRANCH  19  22
ENDBRANCH  13  16
ENDBRANCH  11  12
ENDBRANCH   9  10
BRANCH   7  25
ATOM     25  C   UNL     1     -16.190  14.658 -22.476  0.00  0.00    +0.048 C 
BRANCH  25  26
ATOM     26  C   UNL     1     -16.999  15.683 -21.718  0.00  0.00    -0.028 A 
ATOM     27  C   UNL     1     -18.334  15.424 -21.373  0.00  0.00    -0.055 A 
ATOM     28  C   UNL     1     -19.127  16.423 -20.806  0.00  0.00    -0.043 A 
ATOM     29  C   UNL     1     -18.583  17.681 -20.560  0.00  0.00    +0.041 A 
ATOM     30  C   UNL     1     -17.240  17.932 -20.826  0.00  0.00    -0.043 A 
ATOM     31  C   UNL     1     -16.449  16.935 -21.401  0.00  0.00    -0.055 A 
ATOM     32 CL   UNL     1     -19.588  18.940 -19.954  0.00  0.00    -0.084 Cl
ENDBRANCH  25  26
ENDBRANCH   7  25
TORSDOF 6
ENDMDL
