MODEL 1
REMARK VINA RESULT:    -7.639      0.000      0.000
REMARK INTER + INTRA:          -8.678
REMARK INTER:                  -8.533
REMARK INTRA:                  -0.146
REMARK UNBOUND:                -0.146
REMARK  Name = 2.sdf
REMARK  2 active torsions:
REMARK  status: ('A' for Active; 'I' for Inactive)
REMARK    1  A    between atoms: C_9  and  C_10
REMARK    2  A    between atoms: C_11  and  C_12
REMARK                            x       y       z     vdW  Elec       q    Type
REMARK                         _______ _______ _______ _____ _____    ______ ____
ROOT
ATOM      1  C   UNL     1      -8.129  10.085 -14.717  0.00  0.00    -0.061 A 
ATOM      2  C   UNL     1      -7.041  10.157 -13.854  0.00  0.00    -0.060 A 
ATOM      3  C   UNL     1      -7.048  11.030 -12.765  0.00  0.00    -0.038 A 
ATOM      4  C   UNL     1      -8.184  11.828 -12.574  0.00  0.00    +0.047 A 
ATOM      5  C   UNL     1      -9.299  11.781 -13.416  0.00  0.00    +0.007 A 
ATOM      6  C   UNL     1      -9.257  10.890 -14.513  0.00  0.00    -0.052 A 
ATOM      7  N   UNL     1      -8.442  12.768 -11.604  0.00  0.00    -0.360 N 
ATOM      8  C   UNL     1      -9.671  13.335 -11.807  0.00  0.00    +0.010 A 
ATOM      9  C   UNL     1     -10.240  12.736 -12.911  0.00  0.00    +0.000 A 
ATOM     10  H   UNL     1      -7.829  13.000 -10.868  0.00  0.00    +0.000 HD
ENDROOT
BRANCH   9  11
ATOM     11  C   UNL     1     -11.538  13.109 -13.394  0.00  0.00    -0.046 C 
ATOM     12  C   UNL     1     -11.857  13.303 -14.683  0.00  0.00    +0.023 C 
BRANCH  12  13
ATOM     13  C   UNL     1     -13.157  13.683 -15.266  0.00  0.00    +0.330 C 
ATOM     14  O   UNL     1     -13.799  14.716 -14.697  0.00  0.00    -0.478 OA
ATOM     15  O   UNL     1     -13.615  13.078 -16.224  0.00  0.00    -0.246 OA
ENDBRANCH  12  13
ENDBRANCH   9  11
TORSDOF 2
ENDMDL
