MODEL 1
REMARK VINA RESULT:    -8.683      0.000      0.000
REMARK INTER + INTRA:         -11.898
REMARK INTER:                 -11.475
REMARK INTRA:                  -0.423
REMARK UNBOUND:                -0.423
REMARK  Name = 3a.sdf
REMARK  6 active torsions:
REMARK  status: ('A' for Active; 'I' for Inactive)
REMARK    1  A    between atoms: N_7  and  C_12
REMARK    2  A    between atoms: C_9  and  C_10
REMARK    3  A    between atoms: C_10  and  CA_11
REMARK    4  A    between atoms: CA_11  and  C_20
REMARK    5  A    between atoms: CA_11  and  N_23
REMARK    6  A    between atoms: C_12  and  C_13
REMARK                            x       y       z     vdW  Elec       q    Type
REMARK                         _______ _______ _______ _____ _____    ______ ____
ROOT
ATOM      1  C   UNL     1      -8.955  12.654 -11.962  0.00  0.00    -0.061 A 
ATOM      2  C   UNL     1     -10.170  13.330 -11.991  0.00  0.00    -0.060 A 
ATOM      3  C   UNL     1     -11.023  13.223 -13.094  0.00  0.00    -0.038 A 
ATOM      4  C   UNL     1     -10.635  12.401 -14.164  0.00  0.00    +0.050 A 
ATOM      5  C   UNL     1      -9.433  11.683 -14.139  0.00  0.00    +0.003 A 
ATOM      6  C   UNL     1      -8.579  11.829 -13.026  0.00  0.00    -0.052 A 
ATOM      7  N   UNL     1     -11.223  12.144 -15.386  0.00  0.00    -0.342 N 
ATOM      8  C   UNL     1     -10.524  11.161 -16.042  0.00  0.00    +0.009 A 
ATOM      9  C   UNL     1      -9.351  10.927 -15.355  0.00  0.00    -0.020 A 
ENDROOT
BRANCH   9  10
ATOM     10  C   UNL     1      -8.203  10.062 -15.781  0.00  0.00    -0.000 C 
BRANCH  10  11
ATOM     11  CA  UNL     1      -8.292   8.580 -15.369  0.00  0.00    +0.107 C 
BRANCH  11  12
ATOM     12  N   UNL     1      -6.932   8.091 -15.017  0.00  0.00    -0.318 N 
ATOM     13  H1  UNL     1      -6.662   7.347 -15.659  0.00  0.00    +0.000 HD
ATOM     14  H2  UNL     1      -6.937   7.732 -14.063  0.00  0.00    +0.000 HD
ATOM     15  H3  UNL     1      -6.265   8.860 -15.088  0.00  0.00    +0.000 HD
ENDBRANCH  11  12
BRANCH  11  16
ATOM     16  C   UNL     1      -8.949   7.704 -16.465  0.00  0.00    +0.322 C 
ATOM     17  O   UNL     1      -8.578   6.401 -16.410  0.00  0.00    -0.480 OA
ATOM     18  OXT UNL     1      -9.764   8.092 -17.293  0.00  0.00    -0.249 OA
ENDBRANCH  11  16
ENDBRANCH  10  11
ENDBRANCH   9  10
BRANCH   7  19
ATOM     19  C   UNL     1     -12.315  12.896 -16.002  0.00  0.00    +0.048 C 
BRANCH  19  20
ATOM     20  C   UNL     1     -12.948  12.130 -17.135  0.00  0.00    -0.028 A 
ATOM     21  C   UNL     1     -13.011  12.691 -18.419  0.00  0.00    -0.056 A 
ATOM     22  C   UNL     1     -13.707  12.047 -19.441  0.00  0.00    -0.047 A 
ATOM     23  C   UNL     1     -14.330  10.827 -19.188  0.00  0.00    +0.018 A 
ATOM     24  C   UNL     1     -14.225  10.225 -17.937  0.00  0.00    -0.047 A 
ATOM     25  C   UNL     1     -13.533  10.874 -16.912  0.00  0.00    -0.056 A 
ATOM     26 BR   UNL     1     -15.351  10.001 -20.546  0.00  0.00    -0.050 Br
ENDBRANCH  19  20
ENDBRANCH   7  19
TORSDOF 6
ENDMDL
