MODEL 1
REMARK VINA RESULT:    -8.286      0.000      0.000
REMARK INTER + INTRA:         -10.217
REMARK INTER:                  -9.981
REMARK INTRA:                  -0.236
REMARK UNBOUND:                -0.236
REMARK  Name = 4c.sdf
REMARK  4 active torsions:
REMARK  status: ('A' for Active; 'I' for Inactive)
REMARK    1  A    between atoms: N_7  and  C_11
REMARK    2  A    between atoms: C_9  and  C_10
REMARK    3  A    between atoms: C_10  and  O_19
REMARK    4  A    between atoms: C_11  and  C_12
REMARK                            x       y       z     vdW  Elec       q    Type
REMARK                         _______ _______ _______ _____ _____    ______ ____
ROOT
ATOM      1  C   UNL     1      -8.990  12.635 -11.951  0.00  0.00    -0.061 A 
ATOM      2  C   UNL     1     -10.218  13.286 -11.985  0.00  0.00    -0.060 A 
ATOM      3  C   UNL     1     -11.069  13.166 -13.086  0.00  0.00    -0.038 A 
ATOM      4  C   UNL     1     -10.657  12.356 -14.159  0.00  0.00    +0.050 A 
ATOM      5  C   UNL     1      -9.445  11.660 -14.131  0.00  0.00    +0.005 A 
ATOM      6  C   UNL     1      -8.595  11.819 -13.015  0.00  0.00    -0.052 A 
ATOM      7  N   UNL     1     -11.248  12.082 -15.380  0.00  0.00    -0.342 N 
ATOM      8  C   UNL     1     -10.477  11.192 -16.081  0.00  0.00    +0.011 A 
ATOM      9  C   UNL     1      -9.348  10.900 -15.340  0.00  0.00    +0.003 A 
ENDROOT
BRANCH   9  10
ATOM     10  C   UNL     1      -8.234   9.985 -15.721  0.00  0.00    +0.071 C 
BRANCH  10  11
ATOM     11  O   UNL     1      -8.682   8.898 -16.531  0.00  0.00    -0.390 OA
ATOM     12  H   UNL     1      -7.935   8.547 -17.041  0.00  0.00    +0.000 HD
ENDBRANCH  10  11
ENDBRANCH   9  10
BRANCH   7  13
ATOM     13  C   UNL     1     -12.451  12.720 -15.913  0.00  0.00    +0.048 C 
BRANCH  13  14
ATOM     14  C   UNL     1     -13.027  11.946 -17.073  0.00  0.00    -0.028 A 
ATOM     15  C   UNL     1     -12.992  12.477 -18.372  0.00  0.00    -0.055 A 
ATOM     16  C   UNL     1     -13.592  11.799 -19.434  0.00  0.00    -0.043 A 
ATOM     17  C   UNL     1     -14.225  10.579 -19.207  0.00  0.00    +0.041 A 
ATOM     18  C   UNL     1     -14.238  10.020 -17.932  0.00  0.00    -0.043 A 
ATOM     19  C   UNL     1     -13.641  10.700 -16.868  0.00  0.00    -0.055 A 
ATOM     20 CL   UNL     1     -15.005   9.768 -20.507  0.00  0.00    -0.084 Cl
ENDBRANCH  13  14
ENDBRANCH   7  13
TORSDOF 4
ENDMDL
