MODEL 1
REMARK VINA RESULT:    -8.582      0.000      0.000
REMARK INTER + INTRA:         -10.061
REMARK INTER:                  -9.836
REMARK INTRA:                  -0.225
REMARK UNBOUND:                -0.225
REMARK  Name = 4d.sdf
REMARK  3 active torsions:
REMARK  status: ('A' for Active; 'I' for Inactive)
REMARK    1  A    between atoms: C_9  and  C_10
REMARK    2  A    between atoms: C_10  and  O_18
REMARK    3  A    between atoms: C_11  and  C_12
REMARK                            x       y       z     vdW  Elec       q    Type
REMARK                         _______ _______ _______ _____ _____    ______ ____
ROOT
ATOM      1  C   UNL     1      -9.296  12.469 -11.965  0.00  0.00    -0.061 A 
ATOM      2  C   UNL     1     -10.455  13.219 -12.119  0.00  0.00    -0.060 A 
ATOM      3  C   UNL     1     -11.188  13.172 -13.308  0.00  0.00    -0.037 A 
ATOM      4  C   UNL     1     -10.725  12.351 -14.353  0.00  0.00    +0.057 A 
ATOM      5  C   UNL     1      -9.563  11.582 -14.212  0.00  0.00    +0.006 A 
ATOM      6  C   UNL     1      -8.843  11.648 -13.000  0.00  0.00    -0.052 A 
ATOM      7  N   UNL     1     -11.270  12.072 -15.607  0.00  0.00    -0.283 N 
ATOM      8  C   UNL     1     -10.413  11.195 -16.252  0.00  0.00    +0.019 A 
ATOM      9  C   UNL     1      -9.369  10.854 -15.422  0.00  0.00    +0.004 A 
ATOM     10  C   UNL     1     -12.486  12.568 -16.148  0.00  0.00    +0.263 C 
ATOM     11  O   UNL     1     -12.932  13.624 -15.714  0.00  0.00    -0.267 OA
ENDROOT
BRANCH  10  12
ATOM     12  C   UNL     1     -13.235  11.857 -17.218  0.00  0.00    +0.040 A 
ATOM     13  C   UNL     1     -13.718  10.560 -16.990  0.00  0.00    -0.049 A 
ATOM     14  C   UNL     1     -14.364   9.867 -18.013  0.00  0.00    -0.061 A 
ATOM     15  C   UNL     1     -14.557  10.477 -19.249  0.00  0.00    -0.062 A 
ATOM     16  C   UNL     1     -14.129  11.790 -19.459  0.00  0.00    -0.061 A 
ATOM     17  C   UNL     1     -13.474  12.487 -18.442  0.00  0.00    -0.049 A 
ENDBRANCH  10  12
BRANCH   9  18
ATOM     18  C   UNL     1      -8.265   9.906 -15.742  0.00  0.00    +0.071 C 
BRANCH  18  19
ATOM     19  O   UNL     1      -8.731   8.821 -16.535  0.00  0.00    -0.390 OA
ATOM     20  H   UNL     1      -9.184   8.178 -15.968  0.00  0.00    +0.000 HD
ENDBRANCH  18  19
ENDBRANCH   9  18
TORSDOF 3
ENDMDL
