MODEL 1
REMARK VINA RESULT:    -7.503      0.000      0.000
REMARK INTER + INTRA:          -9.012
REMARK INTER:                  -8.819
REMARK INTRA:                  -0.193
REMARK UNBOUND:                -0.193
REMARK  Name = 5.sdf
REMARK  4 active torsions:
REMARK  status: ('A' for Active; 'I' for Inactive)
REMARK    1  A    between atoms: C_9  and  C_10
REMARK    2  A    between atoms: C_11  and  C_12
REMARK    3  A    between atoms: C_12  and  O_13
REMARK    4  A    between atoms: O_13  and  C_15
REMARK                            x       y       z     vdW  Elec       q    Type
REMARK                         _______ _______ _______ _____ _____    ______ ____
ROOT
ATOM      1  C   UNL     1      -8.243  10.035 -14.666  0.00  0.00    -0.061 A 
ATOM      2  C   UNL     1      -7.107  10.110 -13.863  0.00  0.00    -0.060 A 
ATOM      3  C   UNL     1      -7.055  11.004 -12.795  0.00  0.00    -0.038 A 
ATOM      4  C   UNL     1      -8.173  11.815 -12.567  0.00  0.00    +0.047 A 
ATOM      5  C   UNL     1      -9.335  11.773 -13.348  0.00  0.00    +0.007 A 
ATOM      6  C   UNL     1      -9.357  10.856 -14.422  0.00  0.00    -0.052 A 
ATOM      7  N   UNL     1      -8.374  12.762 -11.593  0.00  0.00    -0.360 N 
ATOM      8  C   UNL     1      -9.610  13.329 -11.730  0.00  0.00    +0.010 A 
ATOM      9  C   UNL     1     -10.249  12.747 -12.809  0.00  0.00    +0.000 A 
ATOM     10  H   UNL     1      -7.720  13.000 -10.896  0.00  0.00    +0.000 HD
ENDROOT
BRANCH   9  11
ATOM     11  C   UNL     1     -11.577  13.092 -13.260  0.00  0.00    -0.046 C 
ATOM     12  C   UNL     1     -11.899  13.297 -14.555  0.00  0.00    +0.023 C 
BRANCH  12  13
ATOM     13  C   UNL     1     -13.190  13.651 -15.177  0.00  0.00    +0.332 C 
ATOM     14  O   UNL     1     -13.810  14.639 -14.804  0.00  0.00    -0.246 OA
BRANCH  13  15
ATOM     15  O   UNL     1     -13.588  12.802 -16.154  0.00  0.00    -0.465 OA
ATOM     16  C   UNL     1     -12.711  12.816 -17.288  0.00  0.00    +0.082 C 
ENDBRANCH  13  15
ENDBRANCH  12  13
ENDBRANCH   9  11
TORSDOF 3
ENDMDL
