MODEL 1
REMARK VINA RESULT:    -8.469      0.000      0.000
REMARK INTER + INTRA:         -11.354
REMARK INTER:                 -10.944
REMARK INTRA:                  -0.410
REMARK UNBOUND:                -0.410
REMARK  Name = 5a.sdf
REMARK  6 active torsions:
REMARK  status: ('A' for Active; 'I' for Inactive)
REMARK    1  A    between atoms: N_7  and  C_12
REMARK    2  A    between atoms: C_9  and  C_10
REMARK    3  A    between atoms: C_11  and  C_20
REMARK    4  A    between atoms: C_12  and  C_13
REMARK    5  A    between atoms: C_20  and  O_21
REMARK    6  A    between atoms: O_21  and  C_23
REMARK                            x       y       z     vdW  Elec       q    Type
REMARK                         _______ _______ _______ _____ _____    ______ ____
ROOT
ATOM      1  C   UNL     1      -9.013  12.727 -11.831  0.00  0.00    -0.061 A 
ATOM      2  C   UNL     1     -10.219  13.408 -11.973  0.00  0.00    -0.060 A 
ATOM      3  C   UNL     1     -11.004  13.254 -13.127  0.00  0.00    -0.038 A 
ATOM      4  C   UNL     1     -10.536  12.412 -14.158  0.00  0.00    +0.050 A 
ATOM      5  C   UNL     1      -9.353  11.670 -14.000  0.00  0.00    +0.007 A 
ATOM      6  C   UNL     1      -8.589  11.844 -12.824  0.00  0.00    -0.052 A 
ATOM      7  N   UNL     1     -11.015  12.129 -15.428  0.00  0.00    -0.342 N 
ATOM      8  C   UNL     1     -10.220  11.157 -16.016  0.00  0.00    +0.013 A 
ATOM      9  C   UNL     1      -9.188  10.842 -15.155  0.00  0.00    +0.000 A 
ENDROOT
BRANCH   9  10
ATOM     10  C   UNL     1      -8.132   9.876 -15.345  0.00  0.00    -0.046 C 
ATOM     11  C   UNL     1      -7.787   8.882 -14.512  0.00  0.00    +0.023 C 
BRANCH  11  12
ATOM     12  C   UNL     1      -6.677   7.896 -14.682  0.00  0.00    +0.332 C 
ATOM     13  O   UNL     1      -6.775   6.975 -15.471  0.00  0.00    -0.246 OA
BRANCH  12  14
ATOM     14  O   UNL     1      -5.606   8.133 -13.881  0.00  0.00    -0.465 OA
ATOM     15  C   UNL     1      -4.903   6.954 -13.463  0.00  0.00    +0.082 C 
ENDBRANCH  12  14
ENDBRANCH  11  12
ENDBRANCH   9  10
BRANCH   7  16
ATOM     16  C   UNL     1     -12.090  12.833 -16.143  0.00  0.00    +0.048 C 
BRANCH  16  17
ATOM     17  C   UNL     1     -12.702  11.984 -17.232  0.00  0.00    -0.028 A 
ATOM     18  C   UNL     1     -12.668  12.412 -18.567  0.00  0.00    -0.056 A 
ATOM     19  C   UNL     1     -13.419  11.753 -19.541  0.00  0.00    -0.047 A 
ATOM     20  C   UNL     1     -14.178  10.640 -19.192  0.00  0.00    +0.018 A 
ATOM     21  C   UNL     1     -14.129  10.131 -17.897  0.00  0.00    -0.047 A 
ATOM     22  C   UNL     1     -13.388  10.799 -16.920  0.00  0.00    -0.056 A 
ATOM     23 BR   UNL     1     -15.341   9.862 -20.463  0.00  0.00    -0.050 Br
ENDBRANCH  16  17
ENDBRANCH   7  16
TORSDOF 5
ENDMDL
