MODEL 1
REMARK VINA RESULT:    -8.471      0.000      0.000
REMARK INTER + INTRA:         -11.241
REMARK INTER:                 -10.947
REMARK INTRA:                  -0.294
REMARK UNBOUND:                -0.294
REMARK  Name = 5c.sdf
REMARK  6 active torsions:
REMARK  status: ('A' for Active; 'I' for Inactive)
REMARK    1  A    between atoms: N_7  and  C_12
REMARK    2  A    between atoms: C_9  and  C_10
REMARK    3  A    between atoms: C_11  and  C_20
REMARK    4  A    between atoms: C_12  and  C_13
REMARK    5  A    between atoms: C_20  and  O_21
REMARK    6  A    between atoms: O_21  and  C_23
REMARK                            x       y       z     vdW  Elec       q    Type
REMARK                         _______ _______ _______ _____ _____    ______ ____
ROOT
ATOM      1  C   UNL     1      -8.988  12.621 -11.958  0.00  0.00    -0.061 A 
ATOM      2  C   UNL     1     -10.118  13.420 -12.088  0.00  0.00    -0.060 A 
ATOM      3  C   UNL     1     -10.913  13.358 -13.236  0.00  0.00    -0.038 A 
ATOM      4  C   UNL     1     -10.546  12.463 -14.257  0.00  0.00    +0.050 A 
ATOM      5  C   UNL     1      -9.434  11.620 -14.132  0.00  0.00    +0.007 A 
ATOM      6  C   UNL     1      -8.643  11.716 -12.966  0.00  0.00    -0.052 A 
ATOM      7  N   UNL     1     -11.103  12.212 -15.499  0.00  0.00    -0.342 N 
ATOM      8  C   UNL     1     -10.408  11.201 -16.127  0.00  0.00    +0.013 A 
ATOM      9  C   UNL     1      -9.376  10.805 -15.305  0.00  0.00    +0.000 A 
ENDROOT
BRANCH   9  10
ATOM     10  C   UNL     1      -8.420   9.768 -15.572  0.00  0.00    -0.046 C 
ATOM     11  C   UNL     1      -8.005   8.843 -14.691  0.00  0.00    +0.023 C 
BRANCH  11  12
ATOM     12  C   UNL     1      -7.008   7.787 -14.966  0.00  0.00    +0.332 C 
ATOM     13  O   UNL     1      -5.851   7.887 -14.582  0.00  0.00    -0.246 OA
BRANCH  12  14
ATOM     14  O   UNL     1      -7.523   6.744 -15.661  0.00  0.00    -0.465 OA
ATOM     15  C   UNL     1      -6.758   5.542 -15.540  0.00  0.00    +0.082 C 
ENDBRANCH  12  14
ENDBRANCH  11  12
ENDBRANCH   9  10
BRANCH   7  16
ATOM     16  C   UNL     1     -12.213  12.943 -16.110  0.00  0.00    +0.048 C 
BRANCH  16  17
ATOM     17  C   UNL     1     -12.832  12.157 -17.240  0.00  0.00    -0.028 A 
ATOM     18  C   UNL     1     -12.817  12.660 -18.549  0.00  0.00    -0.055 A 
ATOM     19  C   UNL     1     -13.525  12.012 -19.565  0.00  0.00    -0.043 A 
ATOM     20  C   UNL     1     -14.234  10.849 -19.281  0.00  0.00    +0.041 A 
ATOM     21  C   UNL     1     -14.203  10.299 -18.002  0.00  0.00    -0.043 A 
ATOM     22  C   UNL     1     -13.501  10.949 -16.984  0.00  0.00    -0.055 A 
ATOM     23 CL   UNL     1     -15.179  10.103 -20.510  0.00  0.00    -0.084 Cl
ENDBRANCH  16  17
ENDBRANCH   7  16
TORSDOF 5
ENDMDL
