MODEL 1
REMARK VINA RESULT:    -8.871      0.000      0.000
REMARK INTER + INTRA:         -11.296
REMARK INTER:                 -10.946
REMARK INTRA:                  -0.350
REMARK UNBOUND:                -0.350
REMARK  Name = 5d.sdf
REMARK  5 active torsions:
REMARK  status: ('A' for Active; 'I' for Inactive)
REMARK    1  A    between atoms: C_9  and  C_10
REMARK    2  A    between atoms: C_11  and  C_19
REMARK    3  A    between atoms: C_12  and  C_13
REMARK    4  A    between atoms: C_19  and  O_20
REMARK    5  A    between atoms: O_20  and  C_22
REMARK                            x       y       z     vdW  Elec       q    Type
REMARK                         _______ _______ _______ _____ _____    ______ ____
ROOT
ATOM      1  C   UNL     1      -9.045  12.615 -11.775  0.00  0.00    -0.061 A 
ATOM      2  C   UNL     1     -10.139  13.431 -12.031  0.00  0.00    -0.060 A 
ATOM      3  C   UNL     1     -10.814  13.361 -13.252  0.00  0.00    -0.037 A 
ATOM      4  C   UNL     1     -10.363  12.445 -14.222  0.00  0.00    +0.057 A 
ATOM      5  C   UNL     1      -9.264  11.606 -13.981  0.00  0.00    +0.007 A 
ATOM      6  C   UNL     1      -8.600  11.704 -12.739  0.00  0.00    -0.052 A 
ATOM      7  N   UNL     1     -10.876  12.126 -15.479  0.00  0.00    -0.283 N 
ATOM      8  C   UNL     1     -10.049  11.162 -16.040  0.00  0.00    +0.021 A 
ATOM      9  C   UNL     1      -9.074  10.798 -15.141  0.00  0.00    +0.001 A 
ATOM     10  C   UNL     1     -12.042  12.657 -16.091  0.00  0.00    +0.263 C 
ATOM     11  O   UNL     1     -12.452  13.755 -15.725  0.00  0.00    -0.267 OA
ENDROOT
BRANCH  10  12
ATOM     12  C   UNL     1     -12.790  11.933 -17.152  0.00  0.00    +0.040 A 
ATOM     13  C   UNL     1     -13.482  10.755 -16.837  0.00  0.00    -0.049 A 
ATOM     14  C   UNL     1     -14.125  10.033 -17.839  0.00  0.00    -0.061 A 
ATOM     15  C   UNL     1     -14.111  10.505 -19.151  0.00  0.00    -0.062 A 
ATOM     16  C   UNL     1     -13.477  11.711 -19.457  0.00  0.00    -0.061 A 
ATOM     17  C   UNL     1     -12.822  12.435 -18.457  0.00  0.00    -0.049 A 
ENDBRANCH  10  12
BRANCH   9  18
ATOM     18  C   UNL     1      -8.067   9.796 -15.351  0.00  0.00    -0.046 C 
ATOM     19  C   UNL     1      -7.634   8.924 -14.424  0.00  0.00    +0.023 C 
BRANCH  19  20
ATOM     20  C   UNL     1      -6.596   7.888 -14.605  0.00  0.00    +0.332 C 
ATOM     21  O   UNL     1      -6.764   6.952 -15.374  0.00  0.00    -0.246 OA
BRANCH  20  22
ATOM     22  O   UNL     1      -5.497   8.100 -13.841  0.00  0.00    -0.465 OA
ATOM     23  C   UNL     1      -4.866   6.888 -13.410  0.00  0.00    +0.082 C 
ENDBRANCH  20  22
ENDBRANCH  19  20
ENDBRANCH   9  18
TORSDOF 4
ENDMDL
