MODEL 1
REMARK VINA RESULT:    -8.914      0.000      0.000
REMARK INTER + INTRA:         -11.468
REMARK INTER:                 -10.998
REMARK INTRA:                  -0.470
REMARK UNBOUND:                -0.470
REMARK  Name = 7d.sdf
REMARK  5 active torsions:
REMARK  status: ('A' for Active; 'I' for Inactive)
REMARK    1  A    between atoms: C_9  and  C_10
REMARK    2  A    between atoms: C_10  and  C_11
REMARK    3  A    between atoms: C_11  and  O_20
REMARK    4  A    between atoms: C_12  and  C_13
REMARK    5  A    between atoms: O_20  and  C_22
REMARK                            x       y       z     vdW  Elec       q    Type
REMARK                         _______ _______ _______ _____ _____    ______ ____
ROOT
ATOM      1  C   UNL     1      -9.247  12.501 -12.079  0.00  0.00    -0.061 A 
ATOM      2  C   UNL     1     -10.484  13.133 -12.111  0.00  0.00    -0.060 A 
ATOM      3  C   UNL     1     -11.292  13.070 -13.251  0.00  0.00    -0.037 A 
ATOM      4  C   UNL     1     -10.823  12.357 -14.370  0.00  0.00    +0.057 A 
ATOM      5  C   UNL     1      -9.582  11.704 -14.352  0.00  0.00    +0.004 A 
ATOM      6  C   UNL     1      -8.789  11.784 -13.187  0.00  0.00    -0.052 A 
ATOM      7  N   UNL     1     -11.430  12.080 -15.595  0.00  0.00    -0.283 N 
ATOM      8  C   UNL     1     -10.522  11.372 -16.362  0.00  0.00    +0.018 A 
ATOM      9  C   UNL     1      -9.411  11.055 -15.611  0.00  0.00    -0.011 A 
ATOM     10  C   UNL     1     -12.740  12.420 -16.012  0.00  0.00    +0.263 C 
ATOM     11  O   UNL     1     -13.301  13.374 -15.479  0.00  0.00    -0.267 OA
ENDROOT
BRANCH  10  12
ATOM     12  C   UNL     1     -13.455  11.663 -17.073  0.00  0.00    +0.040 A 
ATOM     13  C   UNL     1     -13.678  10.287 -16.919  0.00  0.00    -0.049 A 
ATOM     14  C   UNL     1     -14.290   9.559 -17.938  0.00  0.00    -0.061 A 
ATOM     15  C   UNL     1     -14.707  10.207 -19.098  0.00  0.00    -0.062 A 
ATOM     16  C   UNL     1     -14.532  11.587 -19.233  0.00  0.00    -0.061 A 
ATOM     17  C   UNL     1     -13.912  12.324 -18.216  0.00  0.00    -0.049 A 
ENDBRANCH  10  12
BRANCH   9  18
ATOM     18  C   UNL     1      -8.265  10.205 -16.067  0.00  0.00    +0.072 C 
BRANCH  18  19
ATOM     19  C   UNL     1      -8.267   8.820 -15.436  0.00  0.00    +0.311 C 
ATOM     20  O   UNL     1      -8.960   7.868 -15.770  0.00  0.00    -0.250 OA
BRANCH  19  21
ATOM     21  O   UNL     1      -7.347   8.785 -14.425  0.00  0.00    -0.468 OA
ATOM     22  C   UNL     1      -6.322   7.808 -14.617  0.00  0.00    +0.082 C 
ENDBRANCH  19  21
ENDBRANCH  18  19
ENDBRANCH   9  18
TORSDOF 4
ENDMDL
