MODEL 1
REMARK VINA RESULT:    -9.492      0.000      0.000
REMARK INTER + INTRA:         -13.220
REMARK INTER:                 -12.267
REMARK INTRA:                  -0.954
REMARK UNBOUND:                -0.954
REMARK  Name = 8a.sdf
REMARK  5 active torsions:
REMARK  status: ('A' for Active; 'I' for Inactive)
REMARK    1  A    between atoms: N_7  and  C_12
REMARK    2  A    between atoms: C_9  and  C_10
REMARK    3  A    between atoms: N_11  and  N_20
REMARK    4  A    between atoms: C_12  and  C_13
REMARK    5  A    between atoms: C_21  and  C_23
REMARK                            x       y       z     vdW  Elec       q    Type
REMARK                         _______ _______ _______ _____ _____    ______ ____
ROOT
ATOM      1  C   UNL     1     -17.341   9.986 -20.617  0.00  0.00    -0.061 A 
ATOM      2  C   UNL     1     -18.073  10.584 -21.636  0.00  0.00    -0.060 A 
ATOM      3  C   UNL     1     -17.699  11.826 -22.157  0.00  0.00    -0.038 A 
ATOM      4  C   UNL     1     -16.556  12.454 -21.634  0.00  0.00    +0.050 A 
ATOM      5  C   UNL     1     -15.778  11.849 -20.638  0.00  0.00    +0.009 A 
ATOM      6  C   UNL     1     -16.192  10.603 -20.117  0.00  0.00    -0.052 A 
ATOM      7  N   UNL     1     -15.977  13.678 -21.908  0.00  0.00    -0.342 N 
ATOM      8  C   UNL     1     -14.824  13.822 -21.176  0.00  0.00    +0.015 A 
ATOM      9  C   UNL     1     -14.660  12.705 -20.380  0.00  0.00    +0.020 A 
ENDROOT
BRANCH   9  10
ATOM     10  C   UNL     1     -13.564  12.461 -19.473  0.00  0.00    +0.055 C 
ATOM     11  N   UNL     1     -13.790  12.333 -18.204  0.00  0.00    -0.187 NA
BRANCH  11  12
ATOM     12  N   UNL     1     -12.693  12.112 -17.420  0.00  0.00    -0.203 N 
ATOM     13  C   UNL     1     -12.606  12.728 -16.178  0.00  0.00    +0.263 C 
ATOM     14  O   UNL     1     -13.451  13.469 -15.693  0.00  0.00    -0.268 OA
ATOM     15  H   UNL     1     -11.971  11.521 -17.732  0.00  0.00    +0.000 HD
BRANCH  13  16
ATOM     16  C   UNL     1     -11.383  12.406 -15.386  0.00  0.00    +0.038 A 
ATOM     17  C   UNL     1     -11.040  13.091 -14.213  0.00  0.00    -0.049 A 
ATOM     18  C   UNL     1      -9.879  12.744 -13.514  0.00  0.00    -0.047 A 
ATOM     19  C   UNL     1      -9.069  11.707 -13.981  0.00  0.00    +0.018 A 
ATOM     20  C   UNL     1      -9.413  11.004 -15.131  0.00  0.00    -0.047 A 
ATOM     21  C   UNL     1     -10.573  11.349 -15.830  0.00  0.00    -0.049 A 
ATOM     22 BR   UNL     1      -7.500  11.247 -13.034  0.00  0.00    -0.050 Br
ENDBRANCH  13  16
ENDBRANCH  11  12
ENDBRANCH   9  10
BRANCH   7  23
ATOM     23  C   UNL     1     -16.537  14.729 -22.756  0.00  0.00    +0.048 C 
BRANCH  23  24
ATOM     24  C   UNL     1     -17.322  15.738 -21.954  0.00  0.00    -0.028 A 
ATOM     25  C   UNL     1     -18.666  15.503 -21.631  0.00  0.00    -0.056 A 
ATOM     26  C   UNL     1     -19.422  16.481 -20.983  0.00  0.00    -0.047 A 
ATOM     27  C   UNL     1     -18.833  17.696 -20.642  0.00  0.00    +0.018 A 
ATOM     28  C   UNL     1     -17.485  17.927 -20.907  0.00  0.00    -0.047 A 
ATOM     29  C   UNL     1     -16.732  16.950 -21.561  0.00  0.00    -0.056 A 
ATOM     30 BR   UNL     1     -19.880  19.053 -19.843  0.00  0.00    -0.050 Br
ENDBRANCH  23  24
ENDBRANCH   7  23
TORSDOF 5
ENDMDL
