MODEL 1
REMARK VINA RESULT:    -9.903      0.000      0.000
REMARK INTER + INTRA:         -13.766
REMARK INTER:                 -12.798
REMARK INTRA:                  -0.969
REMARK UNBOUND:                -0.969
REMARK  Name = 8c.sdf
REMARK  5 active torsions:
REMARK  status: ('A' for Active; 'I' for Inactive)
REMARK    1  A    between atoms: N_7  and  C_12
REMARK    2  A    between atoms: C_9  and  C_10
REMARK    3  A    between atoms: N_11  and  N_20
REMARK    4  A    between atoms: C_12  and  C_13
REMARK    5  A    between atoms: C_21  and  C_23
REMARK                            x       y       z     vdW  Elec       q    Type
REMARK                         _______ _______ _______ _____ _____    ______ ____
ROOT
ATOM      1  C   UNL     1     -17.809  10.686 -20.627  0.00  0.00    -0.061 A 
ATOM      2  C   UNL     1     -18.503  11.336 -21.642  0.00  0.00    -0.060 A 
ATOM      3  C   UNL     1     -17.997  12.501 -22.226  0.00  0.00    -0.038 A 
ATOM      4  C   UNL     1     -16.763  12.996 -21.773  0.00  0.00    +0.050 A 
ATOM      5  C   UNL     1     -16.024  12.334 -20.784  0.00  0.00    +0.009 A 
ATOM      6  C   UNL     1     -16.571  11.169 -20.197  0.00  0.00    -0.052 A 
ATOM      7  N   UNL     1     -16.043  14.123 -22.121  0.00  0.00    -0.342 N 
ATOM      8  C   UNL     1     -14.853  14.146 -21.438  0.00  0.00    +0.015 A 
ATOM      9  C   UNL     1     -14.798  13.046 -20.603  0.00  0.00    +0.020 A 
ENDROOT
BRANCH   9  10
ATOM     10  C   UNL     1     -13.702  12.697 -19.726  0.00  0.00    +0.055 C 
ATOM     11  N   UNL     1     -13.884  12.671 -18.445  0.00  0.00    -0.187 NA
BRANCH  11  12
ATOM     12  N   UNL     1     -12.791  12.340 -17.694  0.00  0.00    -0.203 N 
ATOM     13  C   UNL     1     -12.699  12.798 -16.385  0.00  0.00    +0.263 C 
ATOM     14  O   UNL     1     -13.544  13.480 -15.812  0.00  0.00    -0.268 OA
ATOM     15  H   UNL     1     -12.075  11.784 -18.076  0.00  0.00    +0.000 HD
BRANCH  13  16
ATOM     16  C   UNL     1     -11.480  12.373 -15.637  0.00  0.00    +0.038 A 
ATOM     17  C   UNL     1     -11.004  13.065 -14.513  0.00  0.00    -0.049 A 
ATOM     18  C   UNL     1      -9.853  12.625 -13.851  0.00  0.00    -0.047 A 
ATOM     19  C   UNL     1      -9.182  11.490 -14.305  0.00  0.00    +0.018 A 
ATOM     20  C   UNL     1      -9.657  10.781 -15.407  0.00  0.00    -0.047 A 
ATOM     21  C   UNL     1     -10.808  11.222 -16.068  0.00  0.00    -0.049 A 
ATOM     22 BR   UNL     1      -7.624  10.901 -13.412  0.00  0.00    -0.050 Br
ENDBRANCH  13  16
ENDBRANCH  11  12
ENDBRANCH   9  10
BRANCH   7  23
ATOM     23  C   UNL     1     -16.495  15.200 -23.002  0.00  0.00    +0.048 C 
BRANCH  23  24
ATOM     24  C   UNL     1     -17.307  16.228 -22.255  0.00  0.00    -0.028 A 
ATOM     25  C   UNL     1     -16.674  17.218 -21.487  0.00  0.00    -0.055 A 
ATOM     26  C   UNL     1     -17.425  18.107 -20.716  0.00  0.00    -0.043 A 
ATOM     27  C   UNL     1     -18.816  18.020 -20.718  0.00  0.00    +0.041 A 
ATOM     28  C   UNL     1     -19.461  17.075 -21.510  0.00  0.00    -0.043 A 
ATOM     29  C   UNL     1     -18.710  16.183 -22.278  0.00  0.00    -0.055 A 
ATOM     30 CL   UNL     1     -19.737  19.075 -19.718  0.00  0.00    -0.084 Cl
ENDBRANCH  23  24
ENDBRANCH   7  23
TORSDOF 5
ENDMDL
