MODEL 1
REMARK VINA RESULT:    -8.777      0.000      0.000
REMARK INTER + INTRA:         -10.676
REMARK INTER:                 -10.317
REMARK INTRA:                  -0.359
REMARK UNBOUND:                -0.359
REMARK  Name = 9.sdf
REMARK  3 active torsions:
REMARK  status: ('A' for Active; 'I' for Inactive)
REMARK    1  A    between atoms: C_9  and  C_10
REMARK    2  A    between atoms: C_11  and  C_12
REMARK    3  A    between atoms: C_12  and  C_13
REMARK                            x       y       z     vdW  Elec       q    Type
REMARK                         _______ _______ _______ _____ _____    ______ ____
ROOT
ATOM      1  C   UNL     1      -7.676  10.431 -14.511  0.00  0.00    -0.061 A 
ATOM      2  C   UNL     1      -6.798  10.616 -13.448  0.00  0.00    -0.060 A 
ATOM      3  C   UNL     1      -7.116  11.482 -12.399  0.00  0.00    -0.038 A 
ATOM      4  C   UNL     1      -8.349  12.146 -12.449  0.00  0.00    +0.047 A 
ATOM      5  C   UNL     1      -9.265  11.972 -13.490  0.00  0.00    +0.007 A 
ATOM      6  C   UNL     1      -8.903  11.103 -14.546  0.00  0.00    -0.052 A 
ATOM      7  N   UNL     1      -8.898  13.051 -11.571  0.00  0.00    -0.360 N 
ATOM      8  C   UNL     1     -10.126  13.463 -12.016  0.00  0.00    +0.010 A 
ATOM      9  C   UNL     1     -10.401  12.793 -13.188  0.00  0.00    +0.000 A 
ATOM     10  H   UNL     1      -8.470  13.360 -10.740  0.00  0.00    +0.000 HD
ENDROOT
BRANCH   9  11
ATOM     11  C   UNL     1     -11.624  12.968 -13.911  0.00  0.00    -0.049 C 
ATOM     12  C   UNL     1     -11.743  12.839 -15.240  0.00  0.00    -0.014 C 
BRANCH  12  13
ATOM     13  C   UNL     1     -13.032  13.076 -15.939  0.00  0.00    +0.186 C 
ATOM     14  O   UNL     1     -13.864  13.879 -15.534  0.00  0.00    -0.287 OA
BRANCH  13  15
ATOM     15  C   UNL     1     -13.283  12.248 -17.151  0.00  0.00    +0.022 A 
ATOM     16  C   UNL     1     -13.039  12.793 -18.415  0.00  0.00    -0.051 A 
ATOM     17  C   UNL     1     -13.293  12.035 -19.561  0.00  0.00    -0.061 A 
ATOM     18  C   UNL     1     -13.775  10.730 -19.447  0.00  0.00    -0.062 A 
ATOM     19  C   UNL     1     -13.992  10.173 -18.188  0.00  0.00    -0.061 A 
ATOM     20  C   UNL     1     -13.741  10.927 -17.041  0.00  0.00    -0.051 A 
ENDBRANCH  13  15
ENDBRANCH  12  13
ENDBRANCH   9  11
TORSDOF 3
ENDMDL
