MODEL 1
REMARK VINA RESULT:    -8.440      0.000      0.000
REMARK INTER + INTRA:          -9.791
REMARK INTER:                  -9.427
REMARK INTRA:                  -0.365
REMARK UNBOUND:                -0.365
REMARK  Name = 0b.sdf
REMARK  2 active torsions:
REMARK  status: ('A' for Active; 'I' for Inactive)
REMARK    1  A    between atoms: N_7  and  C_10
REMARK    2  A    between atoms: C_10  and  C_11
REMARK                            x       y       z     vdW  Elec       q    Type
REMARK                         _______ _______ _______ _____ _____    ______ ____
ROOT
ATOM      1  C   UNL     1      61.159  74.689  15.026  0.00  0.00    -0.061 A 
ATOM      2  C   UNL     1      62.432  74.990  15.498  0.00  0.00    -0.060 A 
ATOM      3  C   UNL     1      62.657  75.248  16.855  0.00  0.00    -0.038 A 
ATOM      4  C   UNL     1      61.562  75.189  17.733  0.00  0.00    +0.049 A 
ATOM      5  C   UNL     1      60.278  74.860  17.280  0.00  0.00    -0.000 A 
ATOM      6  C   UNL     1      60.076  74.618  15.906  0.00  0.00    -0.053 A 
ATOM      7  N   UNL     1      61.458  75.422  19.092  0.00  0.00    -0.342 N 
ATOM      8  C   UNL     1      60.166  75.200  19.509  0.00  0.00    +0.006 A 
ATOM      9  C   UNL     1      59.418  74.856  18.409  0.00  0.00    -0.036 A 
ENDROOT
BRANCH   7  10
ATOM     10  C   UNL     1      62.505  75.963  19.953  0.00  0.00    +0.048 C 
BRANCH  10  11
ATOM     11  C   UNL     1      63.221  74.892  20.732  0.00  0.00    -0.025 A 
ATOM     12  C   UNL     1      63.216  73.563  20.298  0.00  0.00    -0.039 A 
ATOM     13  C   UNL     1      63.884  72.611  21.051  0.00  0.00    +0.028 A 
ATOM     14  N   UNL     1      64.556  72.890  22.187  0.00  0.00    -0.263 NA
ATOM     15  C   UNL     1      64.549  74.176  22.594  0.00  0.00    +0.028 A 
ATOM     16  C   UNL     1      63.909  75.198  21.912  0.00  0.00    -0.039 A 
ENDBRANCH  10  11
ENDBRANCH   7  10
TORSDOF 2
ENDMDL
