MODEL 1
REMARK VINA RESULT:    -7.527      0.000      0.000
REMARK INTER + INTRA:          -8.597
REMARK INTER:                  -8.407
REMARK INTRA:                  -0.190
REMARK UNBOUND:                -0.190
REMARK  Name = 12.sdf
REMARK  2 active torsions:
REMARK  status: ('A' for Active; 'I' for Inactive)
REMARK    1  A    between atoms: C_9  and  C_10
REMARK    2  A    between atoms: C_10  and  C_11
REMARK                            x       y       z     vdW  Elec       q    Type
REMARK                         _______ _______ _______ _____ _____    ______ ____
ROOT
ATOM      1  C   UNL     1      62.169  75.177  15.496  0.00  0.00    -0.061 A 
ATOM      2  C   UNL     1      60.989  74.757  14.887  0.00  0.00    -0.060 A 
ATOM      3  C   UNL     1      59.836  74.528  15.641  0.00  0.00    -0.038 A 
ATOM      4  C   UNL     1      59.909  74.738  17.023  0.00  0.00    +0.047 A 
ATOM      5  C   UNL     1      61.070  75.177  17.664  0.00  0.00    +0.003 A 
ATOM      6  C   UNL     1      62.223  75.393  16.881  0.00  0.00    -0.052 A 
ATOM      7  N   UNL     1      58.941  74.595  17.986  0.00  0.00    -0.360 N 
ATOM      8  C   UNL     1      59.441  74.934  19.213  0.00  0.00    +0.006 A 
ATOM      9  C   UNL     1      60.759  75.323  19.057  0.00  0.00    -0.012 A 
ATOM     10  H   UNL     1      58.019  74.291  17.818  0.00  0.00    +0.000 HD
ENDROOT
BRANCH   9  11
ATOM     11  C   UNL     1      61.649  75.850  20.143  0.00  0.00    +0.072 C 
BRANCH  11  12
ATOM     12  C   UNL     1      62.342  74.807  20.991  0.00  0.00    +0.309 C 
ATOM     13  O   UNL     1      62.068  74.625  22.172  0.00  0.00    -0.251 OA
ATOM     14  O   UNL     1      63.222  74.010  20.344  0.00  0.00    -0.480 OA
ENDBRANCH  11  12
ENDBRANCH   9  11
TORSDOF 2
ENDMDL
