MODEL 1
REMARK VINA RESULT:    -8.679      0.000      0.000
REMARK INTER + INTRA:         -11.838
REMARK INTER:                 -11.216
REMARK INTRA:                  -0.622
REMARK UNBOUND:                -0.622
REMARK  Name = 15.sdf
REMARK  6 active torsions:
REMARK  status: ('A' for Active; 'I' for Inactive)
REMARK    1  A    between atoms: C_9  and  C_10
REMARK    2  A    between atoms: C_10  and  O_11
REMARK    3  A    between atoms: O_11  and  C_12
REMARK    4  A    between atoms: C_12  and  C_13
REMARK    5  A    between atoms: C_13  and  C_15
REMARK    6  A    between atoms: C_16  and  C_17
REMARK                            x       y       z     vdW  Elec       q    Type
REMARK                         _______ _______ _______ _____ _____    ______ ____
ROOT
ATOM      1  C   UNL     1      62.254  75.005  15.424  0.00  0.00    -0.061 A 
ATOM      2  C   UNL     1      61.070  74.583  14.823  0.00  0.00    -0.060 A 
ATOM      3  C   UNL     1      59.903  74.414  15.573  0.00  0.00    -0.038 A 
ATOM      4  C   UNL     1      59.968  74.683  16.945  0.00  0.00    +0.047 A 
ATOM      5  C   UNL     1      61.138  75.106  17.577  0.00  0.00    +0.006 A 
ATOM      6  C   UNL     1      62.301  75.271  16.798  0.00  0.00    -0.052 A 
ATOM      7  N   UNL     1      58.994  74.602  17.912  0.00  0.00    -0.360 N 
ATOM      8  C   UNL     1      59.504  74.960  19.129  0.00  0.00    +0.009 A 
ATOM      9  C   UNL     1      60.842  75.273  18.969  0.00  0.00    +0.015 A 
ATOM     10  H   UNL     1      58.062  74.327  17.751  0.00  0.00    +0.000 HD
ENDROOT
BRANCH   9  11
ATOM     11  C   UNL     1      61.787  75.704  20.042  0.00  0.00    +0.120 C 
BRANCH  11  12
ATOM     12  O   UNL     1      61.473  75.122  21.318  0.00  0.00    -0.456 OA
BRANCH  12  13
ATOM     13  C   UNL     1      62.318  75.452  22.328  0.00  0.00    +0.339 C 
ATOM     14  O   UNL     1      62.741  76.578  22.560  0.00  0.00    -0.245 OA
BRANCH  13  15
ATOM     15  C   UNL     1      62.720  74.244  23.138  0.00  0.00    +0.052 C 
ATOM     16  C   UNL     1      61.865  73.665  23.997  0.00  0.00    -0.085 C 
BRANCH  15  17
ATOM     17  C   UNL     1      64.012  73.641  22.838  0.00  0.00    -0.053 C 
ATOM     18  C   UNL     1      64.359  72.823  21.831  0.00  0.00    -0.086 C 
ATOM     19  C   UNL     1      63.514  72.264  20.733  0.00  0.00    -0.047 C 
ENDBRANCH  15  17
ENDBRANCH  13  15
ENDBRANCH  12  13
ENDBRANCH  11  12
ENDBRANCH   9  11
TORSDOF 5
ENDMDL
