MODEL 1
REMARK VINA RESULT:   -10.117      0.000      0.000
REMARK INTER + INTRA:         -13.842
REMARK INTER:                 -13.075
REMARK INTRA:                  -0.767
REMARK UNBOUND:                -0.767
REMARK  Name = 15d.sdf
REMARK  5 active torsions:
REMARK  status: ('A' for Active; 'I' for Inactive)
REMARK    1  A    between atoms: C_9  and  C_10
REMARK    2  A    between atoms: C_10  and  O_11
REMARK    3  A    between atoms: O_11  and  C_12
REMARK    4  A    between atoms: C_12  and  C_13
REMARK    5  A    between atoms: C_15  and  C_16
REMARK                            x       y       z     vdW  Elec       q    Type
REMARK                         _______ _______ _______ _____ _____    ______ ____
ROOT
ATOM      1  C   UNL     1      65.369  72.820  24.316  0.00  0.00    -0.061 A 
ATOM      2  C   UNL     1      65.975  73.890  24.959  0.00  0.00    -0.060 A 
ATOM      3  C   UNL     1      65.844  75.193  24.466  0.00  0.00    -0.037 A 
ATOM      4  C   UNL     1      65.087  75.397  23.296  0.00  0.00    +0.057 A 
ATOM      5  C   UNL     1      64.465  74.327  22.636  0.00  0.00    +0.007 A 
ATOM      6  C   UNL     1      64.612  73.027  23.159  0.00  0.00    -0.052 A 
ATOM      7  N   UNL     1      64.738  76.571  22.626  0.00  0.00    -0.283 N 
ATOM      8  C   UNL     1      63.979  76.215  21.519  0.00  0.00    +0.020 A 
ATOM      9  C   UNL     1      63.765  74.853  21.509  0.00  0.00    +0.015 A 
ATOM     10  C   UNL     1      65.061  77.900  23.001  0.00  0.00    +0.263 C 
ATOM     11  O   UNL     1      66.047  78.087  23.708  0.00  0.00    -0.267 OA
ENDROOT
BRANCH  10  12
ATOM     12  C   UNL     1      64.252  79.076  22.580  0.00  0.00    +0.040 A 
ATOM     13  C   UNL     1      63.067  79.393  23.258  0.00  0.00    -0.049 A 
ATOM     14  C   UNL     1      62.278  80.457  22.826  0.00  0.00    -0.061 A 
ATOM     15  C   UNL     1      62.687  81.227  21.739  0.00  0.00    -0.062 A 
ATOM     16  C   UNL     1      63.898  80.952  21.100  0.00  0.00    -0.061 A 
ATOM     17  C   UNL     1      64.688  79.881  21.523  0.00  0.00    -0.049 A 
ENDBRANCH  10  12
BRANCH   9  18
ATOM     18  C   UNL     1      62.929  74.088  20.529  0.00  0.00    +0.120 C 
BRANCH  18  19
ATOM     19  O   UNL     1      62.901  74.725  19.242  0.00  0.00    -0.456 OA
BRANCH  19  20
ATOM     20  C   UNL     1      61.719  75.269  18.874  0.00  0.00    +0.339 C 
ATOM     21  O   UNL     1      60.942  75.869  19.598  0.00  0.00    -0.245 OA
BRANCH  20  22
ATOM     22  C   UNL     1      61.449  75.029  17.428  0.00  0.00    +0.059 A 
ATOM     23  C   UNL     1      60.124  74.805  17.027  0.00  0.00    -0.048 A 
ATOM     24  C   UNL     1      59.824  74.549  15.687  0.00  0.00    -0.061 A 
ATOM     25  C   UNL     1      60.844  74.524  14.738  0.00  0.00    -0.062 A 
ATOM     26  C   UNL     1      62.162  74.763  15.124  0.00  0.00    -0.061 A 
ATOM     27  C   UNL     1      62.467  75.016  16.465  0.00  0.00    -0.048 A 
ENDBRANCH  20  22
ENDBRANCH  19  20
ENDBRANCH  18  19
ENDBRANCH   9  18
TORSDOF 5
ENDMDL
