MODEL 1
REMARK VINA RESULT:    -9.640      0.000      0.000
REMARK INTER + INTRA:         -13.303
REMARK INTER:                 -12.457
REMARK INTRA:                  -0.845
REMARK UNBOUND:                -0.845
REMARK  Name = 17f.sdf
REMARK  5 active torsions:
REMARK  status: ('A' for Active; 'I' for Inactive)
REMARK    1  A    between atoms: N_7  and  C_11
REMARK    2  A    between atoms: C_9  and  C_10
REMARK    3  A    between atoms: C_11  and  C_12
REMARK    4  A    between atoms: C_12  and  C_13
REMARK    5  A    between atoms: N_21  and  N_22
REMARK                            x       y       z     vdW  Elec       q    Type
REMARK                         _______ _______ _______ _____ _____    ______ ____
ROOT
ATOM      1  C   UNL     1      67.155  75.316  24.890  0.00  0.00    -0.061 A 
ATOM      2  C   UNL     1      66.671  74.075  24.490  0.00  0.00    -0.060 A 
ATOM      3  C   UNL     1      65.513  73.966  23.712  0.00  0.00    -0.038 A 
ATOM      4  C   UNL     1      64.870  75.150  23.318  0.00  0.00    +0.050 A 
ATOM      5  C   UNL     1      65.417  76.407  23.597  0.00  0.00    +0.009 A 
ATOM      6  C   UNL     1      66.548  76.488  24.437  0.00  0.00    -0.052 A 
ATOM      7  N   UNL     1      63.678  75.377  22.655  0.00  0.00    -0.338 N 
ATOM      8  C   UNL     1      63.589  76.703  22.308  0.00  0.00    +0.015 A 
ATOM      9  C   UNL     1      64.674  77.368  22.845  0.00  0.00    +0.020 A 
ENDROOT
BRANCH   9  10
ATOM     10  C   UNL     1      65.037  78.753  22.639  0.00  0.00    +0.055 C 
ATOM     11  N   UNL     1      64.939  79.273  21.456  0.00  0.00    -0.186 NA
BRANCH  11  12
ATOM     12  N   UNL     1      65.430  80.551  21.361  0.00  0.00    -0.191 N 
ATOM     13  C   UNL     1      64.717  81.543  20.737  0.00  0.00    +0.317 C 
ATOM     14  O   UNL     1      65.171  82.659  20.521  0.00  0.00    -0.251 OA
ATOM     15  N   UNL     1      63.459  81.180  20.387  0.00  0.00    -0.312 N 
ATOM     16  H   UNL     1      66.311  80.758  21.748  0.00  0.00    +0.000 HD
ATOM     17  H   UNL     1      63.138  80.269  20.581  0.00  0.00    +0.000 HD
ATOM     18  H   UNL     1      62.867  81.826  19.939  0.00  0.00    +0.000 HD
ENDBRANCH  11  12
ENDBRANCH   9  10
BRANCH   7  19
ATOM     19  C   UNL     1      62.566  74.432  22.550  0.00  0.00    +0.086 C 
BRANCH  19  20
ATOM     20  C   UNL     1      62.522  73.643  21.262  0.00  0.00    +0.183 C 
ATOM     21  O   UNL     1      62.757  72.442  21.196  0.00  0.00    -0.290 OA
BRANCH  20  22
ATOM     22  C   UNL     1      62.151  74.375  20.002  0.00  0.00    +0.019 A 
ATOM     23  C   UNL     1      60.859  74.858  19.754  0.00  0.00    -0.050 A 
ATOM     24  C   UNL     1      60.553  75.459  18.526  0.00  0.00    -0.047 A 
ATOM     25  C   UNL     1      61.538  75.584  17.547  0.00  0.00    +0.018 A 
ATOM     26  C   UNL     1      62.836  75.151  17.797  0.00  0.00    -0.047 A 
ATOM     27  C   UNL     1      63.143  74.553  19.025  0.00  0.00    -0.050 A 
ATOM     28 BR   UNL     1      61.101  76.317  15.861  0.00  0.00    -0.050 Br
ENDBRANCH  20  22
ENDBRANCH  19  20
ENDBRANCH   7  19
TORSDOF 5
ENDMDL
