MODEL 1
REMARK VINA RESULT:    -9.194      0.000      0.000
REMARK INTER + INTRA:         -12.657
REMARK INTER:                 -11.881
REMARK INTRA:                  -0.775
REMARK UNBOUND:                -0.775
REMARK  Name = 17i.sdf
REMARK  6 active torsions:
REMARK  status: ('A' for Active; 'I' for Inactive)
REMARK    1  A    between atoms: N_7  and  C_16
REMARK    2  A    between atoms: C_9  and  C_10
REMARK    3  A    between atoms: N_11  and  N_12
REMARK    4  A    between atoms: C_16  and  C_17
REMARK    5  A    between atoms: C_19  and  O_23
REMARK    6  A    between atoms: O_23  and  C_24
REMARK                            x       y       z     vdW  Elec       q    Type
REMARK                         _______ _______ _______ _____ _____    ______ ____
ROOT
ATOM      1  C   UNL     1      66.748  74.916  24.690  0.00  0.00    -0.061 A 
ATOM      2  C   UNL     1      66.212  73.720  24.224  0.00  0.00    -0.060 A 
ATOM      3  C   UNL     1      65.149  73.711  23.319  0.00  0.00    -0.038 A 
ATOM      4  C   UNL     1      64.630  74.945  22.891  0.00  0.00    +0.050 A 
ATOM      5  C   UNL     1      65.182  76.162  23.310  0.00  0.00    +0.009 A 
ATOM      6  C   UNL     1      66.251  76.141  24.232  0.00  0.00    -0.052 A 
ATOM      7  N   UNL     1      63.558  75.247  22.073  0.00  0.00    -0.342 N 
ATOM      8  C   UNL     1      63.458  76.608  21.927  0.00  0.00    +0.015 A 
ATOM      9  C   UNL     1      64.471  77.210  22.648  0.00  0.00    +0.020 A 
ENDROOT
BRANCH   9  10
ATOM     10  C   UNL     1      64.725  78.633  22.715  0.00  0.00    +0.055 C 
ATOM     11  N   UNL     1      65.219  79.226  21.677  0.00  0.00    -0.186 NA
BRANCH  11  12
ATOM     12  N   UNL     1      65.461  80.567  21.829  0.00  0.00    -0.191 N 
ATOM     13  C   UNL     1      64.963  81.487  20.942  0.00  0.00    +0.317 C 
ATOM     14  O   UNL     1      65.213  82.686  21.008  0.00  0.00    -0.251 OA
ATOM     15  N   UNL     1      64.163  80.959  19.984  0.00  0.00    -0.312 N 
ATOM     16  H   UNL     1      66.003  80.876  22.591  0.00  0.00    +0.000 HD
ATOM     17  H   UNL     1      63.989  79.990  19.968  0.00  0.00    +0.000 HD
ATOM     18  H   UNL     1      63.757  81.544  19.305  0.00  0.00    +0.000 HD
ENDBRANCH  11  12
ENDBRANCH   9  10
BRANCH   7  19
ATOM     19  C   UNL     1      62.531  74.309  21.627  0.00  0.00    +0.048 C 
BRANCH  19  20
ATOM     20  C   UNL     1      61.989  74.569  20.242  0.00  0.00    -0.024 A 
ATOM     21  C   UNL     1      62.837  74.598  19.119  0.00  0.00    -0.015 A 
ATOM     22  C   UNL     1      62.375  75.055  17.881  0.00  0.00    +0.120 A 
ATOM     23  C   UNL     1      61.039  75.437  17.749  0.00  0.00    -0.020 A 
ATOM     24  C   UNL     1      60.175  75.376  18.840  0.00  0.00    -0.058 A 
ATOM     25  C   UNL     1      60.648  74.954  20.081  0.00  0.00    -0.057 A 
BRANCH  22  26
ATOM     26  O   UNL     1      63.131  75.206  16.751  0.00  0.00    -0.495 OA
ATOM     27  C   UNL     1      62.439  75.221  15.508  0.00  0.00    +0.079 C 
ENDBRANCH  22  26
ENDBRANCH  19  20
ENDBRANCH   7  19
TORSDOF 5
ENDMDL
