MODEL 1
REMARK VINA RESULT:    -9.875      0.000      0.000
REMARK INTER + INTRA:         -13.615
REMARK INTER:                 -12.761
REMARK INTRA:                  -0.854
REMARK UNBOUND:                -0.854
REMARK  Name = 18a.sdf
REMARK  5 active torsions:
REMARK  status: ('A' for Active; 'I' for Inactive)
REMARK    1  A    between atoms: N_7  and  C_12
REMARK    2  A    between atoms: C_9  and  C_10
REMARK    3  A    between atoms: N_11  and  N_19
REMARK    4  A    between atoms: C_12  and  C_13
REMARK    5  A    between atoms: C_20  and  C_22
REMARK                            x       y       z     vdW  Elec       q    Type
REMARK                         _______ _______ _______ _____ _____    ______ ____
ROOT
ATOM      1  C   UNL     1      66.614  74.121  24.538  0.00  0.00    -0.061 A 
ATOM      2  C   UNL     1      65.841  73.076  24.048  0.00  0.00    -0.060 A 
ATOM      3  C   UNL     1      64.720  73.321  23.247  0.00  0.00    -0.038 A 
ATOM      4  C   UNL     1      64.390  74.654  22.947  0.00  0.00    +0.050 A 
ATOM      5  C   UNL     1      65.188  75.719  23.385  0.00  0.00    +0.009 A 
ATOM      6  C   UNL     1      66.307  75.442  24.201  0.00  0.00    -0.052 A 
ATOM      7  N   UNL     1      63.326  75.207  22.253  0.00  0.00    -0.342 N 
ATOM      8  C   UNL     1      63.488  76.569  22.170  0.00  0.00    +0.015 A 
ATOM      9  C   UNL     1      64.638  76.923  22.845  0.00  0.00    +0.020 A 
ENDROOT
BRANCH   9  10
ATOM     10  C   UNL     1      65.172  78.264  22.982  0.00  0.00    +0.055 C 
ATOM     11  N   UNL     1      65.451  78.955  21.922  0.00  0.00    -0.187 NA
BRANCH  11  12
ATOM     12  N   UNL     1      65.961  80.205  22.140  0.00  0.00    -0.203 N 
ATOM     13  C   UNL     1      65.198  81.319  21.822  0.00  0.00    +0.263 C 
ATOM     14  O   UNL     1      64.063  81.285  21.361  0.00  0.00    -0.268 OA
ATOM     15  H   UNL     1      66.864  80.313  22.520  0.00  0.00    +0.000 HD
BRANCH  13  16
ATOM     16  C   UNL     1      65.825  82.643  22.112  0.00  0.00    +0.038 A 
ATOM     17  C   UNL     1      65.161  83.856  21.879  0.00  0.00    -0.050 A 
ATOM     18  C   UNL     1      65.802  85.068  22.180  0.00  0.00    -0.061 A 
ATOM     19  C   UNL     1      67.090  85.069  22.715  0.00  0.00    -0.062 A 
ATOM     20  C   UNL     1      67.742  83.864  22.966  0.00  0.00    -0.061 A 
ATOM     21  C   UNL     1      67.109  82.654  22.668  0.00  0.00    -0.050 A 
ENDBRANCH  13  16
ENDBRANCH  11  12
ENDBRANCH   9  10
BRANCH   7  22
ATOM     22  C   UNL     1      62.131  74.506  21.780  0.00  0.00    +0.048 C 
BRANCH  22  23
ATOM     23  C   UNL     1      61.917  74.699  20.299  0.00  0.00    -0.028 A 
ATOM     24  C   UNL     1      62.977  74.526  19.399  0.00  0.00    -0.056 A 
ATOM     25  C   UNL     1      62.827  74.858  18.052  0.00  0.00    -0.047 A 
ATOM     26  C   UNL     1      61.607  75.346  17.594  0.00  0.00    +0.018 A 
ATOM     27  C   UNL     1      60.518  75.445  18.455  0.00  0.00    -0.047 A 
ATOM     28  C   UNL     1      60.672  75.121  19.805  0.00  0.00    -0.056 A 
ATOM     29 BR   UNL     1      61.445  75.929  15.803  0.00  0.00    -0.050 Br
ENDBRANCH  22  23
ENDBRANCH   7  22
TORSDOF 5
ENDMDL
