MODEL 1
REMARK VINA RESULT:   -10.133      0.000      0.000
REMARK INTER + INTRA:         -13.170
REMARK INTER:                 -12.502
REMARK INTRA:                  -0.668
REMARK UNBOUND:                -0.668
REMARK  Name = 18d.sdf
REMARK  4 active torsions:
REMARK  status: ('A' for Active; 'I' for Inactive)
REMARK    1  A    between atoms: C_9  and  C_10
REMARK    2  A    between atoms: N_11  and  N_12
REMARK    3  A    between atoms: C_13  and  C_15
REMARK    4  A    between atoms: C_16  and  C_17
REMARK                            x       y       z     vdW  Elec       q    Type
REMARK                         _______ _______ _______ _____ _____    ______ ____
ROOT
ATOM      1  C   UNL     1      66.236  73.998  24.509  0.00  0.00    -0.061 A 
ATOM      2  C   UNL     1      65.570  72.950  23.888  0.00  0.00    -0.060 A 
ATOM      3  C   UNL     1      64.638  73.193  22.874  0.00  0.00    -0.037 A 
ATOM      4  C   UNL     1      64.375  74.525  22.503  0.00  0.00    +0.057 A 
ATOM      5  C   UNL     1      65.051  75.598  23.105  0.00  0.00    +0.009 A 
ATOM      6  C   UNL     1      65.989  75.321  24.125  0.00  0.00    -0.052 A 
ATOM      7  N   UNL     1      63.517  75.050  21.534  0.00  0.00    -0.282 N 
ATOM      8  C   UNL     1      63.639  76.428  21.571  0.00  0.00    +0.023 A 
ATOM      9  C   UNL     1      64.583  76.806  22.504  0.00  0.00    +0.020 A 
ATOM     10  C   UNL     1      62.653  74.339  20.663  0.00  0.00    +0.263 C 
ATOM     11  O   UNL     1      62.165  73.277  21.067  0.00  0.00    -0.267 OA
ENDROOT
BRANCH  10  12
ATOM     12  C   UNL     1      62.273  74.840  19.323  0.00  0.00    +0.040 A 
ATOM     13  C   UNL     1      60.958  75.256  19.069  0.00  0.00    -0.049 A 
ATOM     14  C   UNL     1      60.568  75.556  17.768  0.00  0.00    -0.061 A 
ATOM     15  C   UNL     1      61.497  75.495  16.732  0.00  0.00    -0.062 A 
ATOM     16  C   UNL     1      62.830  75.167  16.997  0.00  0.00    -0.061 A 
ATOM     17  C   UNL     1      63.223  74.847  18.295  0.00  0.00    -0.049 A 
ENDBRANCH  10  12
BRANCH   9  18
ATOM     18  C   UNL     1      64.972  78.178  22.784  0.00  0.00    +0.055 C 
ATOM     19  N   UNL     1      65.453  78.902  21.825  0.00  0.00    -0.187 NA
BRANCH  19  20
ATOM     20  N   UNL     1      65.814  80.188  22.132  0.00  0.00    -0.203 N 
ATOM     21  C   UNL     1      65.145  81.245  21.527  0.00  0.00    +0.263 C 
ATOM     22  O   UNL     1      64.228  81.133  20.713  0.00  0.00    -0.268 OA
ATOM     23  H   UNL     1      66.539  80.360  22.775  0.00  0.00    +0.000 HD
BRANCH  21  24
ATOM     24  C   UNL     1      65.573  82.611  21.943  0.00  0.00    +0.038 A 
ATOM     25  C   UNL     1      66.124  83.526  21.037  0.00  0.00    -0.050 A 
ATOM     26  C   UNL     1      66.533  84.788  21.479  0.00  0.00    -0.061 A 
ATOM     27  C   UNL     1      66.379  85.145  22.819  0.00  0.00    -0.062 A 
ATOM     28  C   UNL     1      65.795  84.254  23.718  0.00  0.00    -0.061 A 
ATOM     29  C   UNL     1      65.389  82.991  23.282  0.00  0.00    -0.050 A 
ENDBRANCH  21  24
ENDBRANCH  19  20
ENDBRANCH   9  18
TORSDOF 4
ENDMDL
