MODEL 1
REMARK VINA RESULT:    -7.791      0.000      0.000
REMARK INTER + INTRA:          -9.878
REMARK INTER:                  -9.613
REMARK INTRA:                  -0.265
REMARK UNBOUND:                -0.265
REMARK  Name = 19.sdf
REMARK  5 active torsions:
REMARK  status: ('A' for Active; 'I' for Inactive)
REMARK    1  A    between atoms: C_9  and  C_10
REMARK    2  A    between atoms: C_10  and  C_11
REMARK    3  A    between atoms: C_11  and  O_13
REMARK    4  A    between atoms: O_13  and  C_14
REMARK    5  A    between atoms: C_14  and  C_15
REMARK                            x       y       z     vdW  Elec       q    Type
REMARK                         _______ _______ _______ _____ _____    ______ ____
ROOT
ATOM      1  C   UNL     1      62.222  75.137  15.633  0.00  0.00    -0.061 A 
ATOM      2  C   UNL     1      61.027  74.784  15.014  0.00  0.00    -0.060 A 
ATOM      3  C   UNL     1      59.863  74.578  15.760  0.00  0.00    -0.038 A 
ATOM      4  C   UNL     1      59.946  74.754  17.145  0.00  0.00    +0.047 A 
ATOM      5  C   UNL     1      61.121  75.126  17.798  0.00  0.00    +0.003 A 
ATOM      6  C   UNL     1      62.284  75.313  17.020  0.00  0.00    -0.052 A 
ATOM      7  N   UNL     1      58.975  74.618  18.109  0.00  0.00    -0.360 N 
ATOM      8  C   UNL     1      59.485  74.925  19.342  0.00  0.00    +0.006 A 
ATOM      9  C   UNL     1      60.823  75.248  19.196  0.00  0.00    -0.012 A 
ATOM     10  H   UNL     1      58.046  74.340  17.937  0.00  0.00    +0.000 HD
ENDROOT
BRANCH   9  11
ATOM     11  C   UNL     1      61.751  75.688  20.285  0.00  0.00    +0.072 C 
BRANCH  11  12
ATOM     12  C   UNL     1      62.213  74.571  21.201  0.00  0.00    +0.312 C 
ATOM     13  O   UNL     1      61.772  74.305  22.311  0.00  0.00    -0.250 OA
BRANCH  12  14
ATOM     14  O   UNL     1      63.262  73.918  20.605  0.00  0.00    -0.465 OA
BRANCH  14  15
ATOM     15  C   UNL     1      63.659  72.675  21.202  0.00  0.00    +0.090 C 
ATOM     16  C   UNL     1      64.795  72.873  22.185  0.00  0.00    -0.031 C 
ENDBRANCH  14  15
ENDBRANCH  12  14
ENDBRANCH  11  12
ENDBRANCH   9  11
TORSDOF 4
ENDMDL
