MODEL 1
REMARK VINA RESULT:    -7.037      0.000      0.000
REMARK INTER + INTRA:          -7.475
REMARK INTER:                  -7.448
REMARK INTRA:                  -0.027
REMARK UNBOUND:                -0.027
REMARK  Name = 1.sdf
REMARK  1 active torsions:
REMARK  status: ('A' for Active; 'I' for Inactive)
REMARK    1  A    between atoms: C_9  and  C_10
REMARK                            x       y       z     vdW  Elec       q    Type
REMARK                         _______ _______ _______ _____ _____    ______ ____
ROOT
ATOM      1  C   UNL     1      62.142  75.248  15.513  0.00  0.00    -0.061 A 
ATOM      2  C   UNL     1      60.990  74.756  14.908  0.00  0.00    -0.060 A 
ATOM      3  C   UNL     1      59.837  74.497  15.655  0.00  0.00    -0.038 A 
ATOM      4  C   UNL     1      59.886  74.745  17.032  0.00  0.00    +0.047 A 
ATOM      5  C   UNL     1      61.026  75.237  17.672  0.00  0.00    +0.010 A 
ATOM      6  C   UNL     1      62.173  75.495  16.891  0.00  0.00    -0.052 A 
ATOM      7  N   UNL     1      58.919  74.580  17.995  0.00  0.00    -0.360 N 
ATOM      8  C   UNL     1      59.406  74.939  19.221  0.00  0.00    +0.013 A 
ATOM      9  C   UNL     1      60.714  75.358  19.064  0.00  0.00    +0.039 A 
ATOM     10  H   UNL     1      58.006  74.249  17.827  0.00  0.00    +0.000 HD
ENDROOT
BRANCH   9  11
ATOM     11  C   UNL     1      61.578  75.820  20.133  0.00  0.00    +0.152 C 
ATOM     12  O   UNL     1      61.783  75.194  21.169  0.00  0.00    -0.296 OA
ENDBRANCH   9  11
TORSDOF 1
ENDMDL
