MODEL 1
REMARK VINA RESULT:    -8.310      0.000      0.000
REMARK INTER + INTRA:         -10.360
REMARK INTER:                  -9.768
REMARK INTRA:                  -0.593
REMARK UNBOUND:                -0.593
REMARK  Name = 1a.sdf
REMARK  3 active torsions:
REMARK  status: ('A' for Active; 'I' for Inactive)
REMARK    1  A    between atoms: N_7  and  C_12
REMARK    2  A    between atoms: C_9  and  C_10
REMARK    3  A    between atoms: C_12  and  C_13
REMARK                            x       y       z     vdW  Elec       q    Type
REMARK                         _______ _______ _______ _____ _____    ______ ____
ROOT
ATOM      1  C   UNL     1      66.542  74.078  24.456  0.00  0.00    -0.061 A 
ATOM      2  C   UNL     1      65.765  73.114  23.824  0.00  0.00    -0.060 A 
ATOM      3  C   UNL     1      64.664  73.478  23.042  0.00  0.00    -0.038 A 
ATOM      4  C   UNL     1      64.366  74.845  22.902  0.00  0.00    +0.050 A 
ATOM      5  C   UNL     1      65.161  75.834  23.495  0.00  0.00    +0.010 A 
ATOM      6  C   UNL     1      66.257  75.436  24.293  0.00  0.00    -0.052 A 
ATOM      7  N   UNL     1      63.337  75.494  22.243  0.00  0.00    -0.342 N 
ATOM      8  C   UNL     1      63.505  76.853  22.345  0.00  0.00    +0.016 A 
ATOM      9  C   UNL     1      64.622  77.102  23.115  0.00  0.00    +0.039 A 
ENDROOT
BRANCH   9  10
ATOM     10  C   UNL     1      65.124  78.420  23.457  0.00  0.00    +0.152 C 
ATOM     11  O   UNL     1      66.135  78.919  22.973  0.00  0.00    -0.296 OA
ENDBRANCH   9  10
BRANCH   7  12
ATOM     12  C   UNL     1      62.169  74.867  21.627  0.00  0.00    +0.048 C 
BRANCH  12  13
ATOM     13  C   UNL     1      62.151  75.065  20.132  0.00  0.00    -0.028 A 
ATOM     14  C   UNL     1      60.994  75.534  19.491  0.00  0.00    -0.056 A 
ATOM     15  C   UNL     1      60.939  75.619  18.099  0.00  0.00    -0.047 A 
ATOM     16  C   UNL     1      62.046  75.246  17.340  0.00  0.00    +0.018 A 
ATOM     17  C   UNL     1      63.219  74.826  17.960  0.00  0.00    -0.047 A 
ATOM     18  C   UNL     1      63.272  74.738  19.354  0.00  0.00    -0.056 A 
ATOM     19 BR   UNL     1      61.940  75.279  15.452  0.00  0.00    -0.050 Br
ENDBRANCH  12  13
ENDBRANCH   7  12
TORSDOF 3
ENDMDL
