MODEL 1
REMARK VINA RESULT:    -9.291      0.000      0.000
REMARK INTER + INTRA:         -12.418
REMARK INTER:                 -12.007
REMARK INTRA:                  -0.411
REMARK UNBOUND:                -0.411
REMARK  Name = 21.sdf
REMARK  5 active torsions:
REMARK  status: ('A' for Active; 'I' for Inactive)
REMARK    1  A    between atoms: C_9  and  C_10
REMARK    2  A    between atoms: C_10  and  O_11
REMARK    3  A    between atoms: O_11  and  C_12
REMARK    4  A    between atoms: C_12  and  C_13
REMARK    5  A    between atoms: C_13  and  C_14
REMARK                            x       y       z     vdW  Elec       q    Type
REMARK                         _______ _______ _______ _____ _____    ______ ____
ROOT
ATOM      1  C   UNL     1      61.729  75.910  20.152  0.00  0.00    +0.075 C 
ENDROOT
BRANCH   1  10
ATOM      2  C   UNL     1      62.240  75.143  15.517  0.00  0.00    -0.061 A 
ATOM      3  C   UNL     1      61.055  74.737  14.909  0.00  0.00    -0.060 A 
ATOM      4  C   UNL     1      59.904  74.512  15.670  0.00  0.00    -0.038 A 
ATOM      5  C   UNL     1      59.972  74.745  17.049  0.00  0.00    +0.047 A 
ATOM      6  C   UNL     1      61.133  75.184  17.688  0.00  0.00    +0.005 A 
ATOM      7  C   UNL     1      62.294  75.351  16.904  0.00  0.00    -0.052 A 
ATOM      8  N   UNL     1      59.012  74.605  18.022  0.00  0.00    -0.360 N 
ATOM      9  C   UNL     1      59.510  74.979  19.239  0.00  0.00    +0.008 A 
ATOM     10  C   UNL     1      60.825  75.379  19.077  0.00  0.00    +0.003 A 
ATOM     11  H   UNL     1      58.096  74.282  17.866  0.00  0.00    +0.000 HD
ENDBRANCH   1  10
BRANCH   1  12
ATOM     12  O   UNL     1      62.039  74.888  21.109  0.00  0.00    -0.367 OA
BRANCH  12  13
ATOM     13  C   UNL     1      62.700  73.772  20.534  0.00  0.00    +0.111 C 
BRANCH  13  14
ATOM     14  C   UNL     1      63.001  72.679  21.559  0.00  0.00    +0.189 C 
ATOM     15  O   UNL     1      62.720  71.496  21.334  0.00  0.00    -0.290 OA
BRANCH  14  16
ATOM     16  C   UNL     1      63.738  73.019  22.812  0.00  0.00    +0.020 A 
ATOM     17  C   UNL     1      63.091  73.164  24.044  0.00  0.00    -0.050 A 
ATOM     18  C   UNL     1      63.809  73.562  25.175  0.00  0.00    -0.047 A 
ATOM     19  C   UNL     1      65.176  73.818  25.076  0.00  0.00    +0.018 A 
ATOM     20  C   UNL     1      65.840  73.654  23.862  0.00  0.00    -0.047 A 
ATOM     21  C   UNL     1      65.121  73.256  22.732  0.00  0.00    -0.050 A 
ATOM     22 BR   UNL     1      66.126  74.435  26.588  0.00  0.00    -0.050 Br
ENDBRANCH  14  16
ENDBRANCH  13  14
ENDBRANCH  12  13
ENDBRANCH   1  12
TORSDOF 5
ENDMDL
