MODEL 1
REMARK VINA RESULT:    -9.715      0.000      0.000
REMARK INTER + INTRA:         -14.002
REMARK INTER:                 -13.123
REMARK INTRA:                  -0.879
REMARK UNBOUND:                -0.879
REMARK  Name = 25a.sdf
REMARK  7 active torsions:
REMARK  status: ('A' for Active; 'I' for Inactive)
REMARK    1  A    between atoms: N_7  and  C_10
REMARK    2  A    between atoms: C_9  and  C_18
REMARK    3  A    between atoms: C_10  and  C_11
REMARK    4  A    between atoms: N_19  and  N_20
REMARK    5  A    between atoms: C_21  and  C_23
REMARK    6  A    between atoms: C_25  and  O_29
REMARK    7  A    between atoms: C_27  and  O_30
REMARK                            x       y       z     vdW  Elec       q    Type
REMARK                         _______ _______ _______ _____ _____    ______ ____
ROOT
ATOM      1  C   UNL     1      66.574  74.755  24.504  0.00  0.00    -0.061 A 
ATOM      2  C   UNL     1      65.844  73.677  24.021  0.00  0.00    -0.060 A 
ATOM      3  C   UNL     1      64.737  73.869  23.182  0.00  0.00    -0.038 A 
ATOM      4  C   UNL     1      64.359  75.184  22.858  0.00  0.00    +0.050 A 
ATOM      5  C   UNL     1      65.121  76.282  23.284  0.00  0.00    +0.009 A 
ATOM      6  C   UNL     1      66.238  76.056  24.124  0.00  0.00    -0.052 A 
ATOM      7  N   UNL     1      63.281  75.694  22.149  0.00  0.00    -0.342 N 
ATOM      8  C   UNL     1      63.410  77.058  22.041  0.00  0.00    +0.015 A 
ATOM      9  C   UNL     1      64.546  77.461  22.715  0.00  0.00    +0.020 A 
ENDROOT
BRANCH   9  10
ATOM     10  C   UNL     1      65.038  78.824  22.821  0.00  0.00    +0.055 C 
ATOM     11  N   UNL     1      65.314  79.494  21.749  0.00  0.00    -0.187 NA
BRANCH  11  12
ATOM     12  N   UNL     1      65.778  80.772  21.939  0.00  0.00    -0.203 N 
ATOM     13  C   UNL     1      65.236  81.815  21.191  0.00  0.00    +0.263 C 
ATOM     14  O   UNL     1      64.380  81.703  20.326  0.00  0.00    -0.268 OA
ATOM     15  H   UNL     1      66.488  80.949  22.598  0.00  0.00    +0.000 HD
BRANCH  13  16
ATOM     16  C   UNL     1      65.778  83.176  21.490  0.00  0.00    +0.045 A 
ATOM     17  C   UNL     1      65.242  83.907  22.567  0.00  0.00    -0.008 A 
ATOM     18  C   UNL     1      65.775  85.158  22.876  0.00  0.00    +0.121 A 
ATOM     19  C   UNL     1      66.832  85.689  22.138  0.00  0.00    +0.021 A 
ATOM     20  C   UNL     1      67.357  84.952  21.084  0.00  0.00    +0.121 A 
ATOM     21  C   UNL     1      66.842  83.703  20.756  0.00  0.00    -0.008 A 
BRANCH  18  22
ATOM     22  O   UNL     1      65.307  85.909  23.914  0.00  0.00    -0.507 OA
ATOM     23  H   UNL     1      65.801  86.645  24.219  0.00  0.00    +0.000 HD
ENDBRANCH  18  22
BRANCH  20  24
ATOM     24  O   UNL     1      68.402  85.409  20.338  0.00  0.00    -0.507 OA
ATOM     25  H   UNL     1      68.621  86.320  20.348  0.00  0.00    +0.000 HD
ENDBRANCH  20  24
ENDBRANCH  13  16
ENDBRANCH  11  12
ENDBRANCH   9  10
BRANCH   7  26
ATOM     26  C   UNL     1      62.083  74.968  21.707  0.00  0.00    +0.048 C 
BRANCH  26  27
ATOM     27  C   UNL     1      61.965  74.922  20.202  0.00  0.00    -0.028 A 
ATOM     28  C   UNL     1      63.095  74.662  19.413  0.00  0.00    -0.056 A 
ATOM     29  C   UNL     1      63.043  74.822  18.028  0.00  0.00    -0.047 A 
ATOM     30  C   UNL     1      61.852  75.209  17.421  0.00  0.00    +0.018 A 
ATOM     31  C   UNL     1      60.691  75.356  18.176  0.00  0.00    -0.047 A 
ATOM     32  C   UNL     1      60.747  75.210  19.565  0.00  0.00    -0.056 A 
ATOM     33 BR   UNL     1      61.829  75.608  15.573  0.00  0.00    -0.050 Br
ENDBRANCH  26  27
ENDBRANCH   7  26
TORSDOF 7
ENDMDL
