MODEL 1
REMARK VINA RESULT:    -9.840      0.000      0.000
REMARK INTER + INTRA:         -14.251
REMARK INTER:                 -13.291
REMARK INTRA:                  -0.961
REMARK UNBOUND:                -0.961
REMARK  Name = 26a.sdf
REMARK  7 active torsions:
REMARK  status: ('A' for Active; 'I' for Inactive)
REMARK    1  A    between atoms: N_7  and  C_10
REMARK    2  A    between atoms: C_9  and  C_18
REMARK    3  A    between atoms: C_10  and  C_11
REMARK    4  A    between atoms: N_19  and  N_20
REMARK    5  A    between atoms: C_21  and  C_23
REMARK    6  A    between atoms: C_26  and  O_29
REMARK    7  A    between atoms: C_28  and  O_30
REMARK                            x       y       z     vdW  Elec       q    Type
REMARK                         _______ _______ _______ _____ _____    ______ ____
ROOT
ATOM      1  C   UNL     1      64.792  73.279  22.985  0.00  0.00    -0.061 A 
ATOM      2  C   UNL     1      63.709  72.696  22.339  0.00  0.00    -0.060 A 
ATOM      3  C   UNL     1      62.817  73.469  21.589  0.00  0.00    -0.038 A 
ATOM      4  C   UNL     1      63.047  74.852  21.495  0.00  0.00    +0.050 A 
ATOM      5  C   UNL     1      64.159  75.454  22.097  0.00  0.00    +0.009 A 
ATOM      6  C   UNL     1      65.033  74.652  22.864  0.00  0.00    -0.052 A 
ATOM      7  N   UNL     1      62.326  75.861  20.882  0.00  0.00    -0.342 N 
ATOM      8  C   UNL     1      62.994  77.051  21.011  0.00  0.00    +0.015 A 
ATOM      9  C   UNL     1      64.137  76.842  21.755  0.00  0.00    +0.020 A 
ENDROOT
BRANCH   9  10
ATOM     10  C   UNL     1      65.108  77.855  22.109  0.00  0.00    +0.055 C 
ATOM     11  N   UNL     1      65.167  78.951  21.425  0.00  0.00    -0.187 NA
BRANCH  11  12
ATOM     12  N   UNL     1      66.123  79.833  21.831  0.00  0.00    -0.203 N 
ATOM     13  C   UNL     1      65.796  80.938  22.592  0.00  0.00    +0.267 C 
ATOM     14  O   UNL     1      64.659  81.219  22.976  0.00  0.00    -0.268 OA
ATOM     15  H   UNL     1      67.062  79.681  21.577  0.00  0.00    +0.000 HD
BRANCH  13  16
ATOM     16  C   UNL     1      66.936  81.846  22.954  0.00  0.00    +0.080 A 
ATOM     17  C   UNL     1      66.719  83.231  22.845  0.00  0.00    -0.043 A 
ATOM     18  C   UNL     1      67.731  84.146  23.147  0.00  0.00    -0.019 A 
ATOM     19  C   UNL     1      68.970  83.674  23.564  0.00  0.00    +0.120 A 
ATOM     20  C   UNL     1      69.211  82.311  23.689  0.00  0.00    +0.022 A 
ATOM     21  C   UNL     1      68.197  81.398  23.383  0.00  0.00    +0.132 A 
BRANCH  19  22
ATOM     22  O   UNL     1      69.994  84.524  23.858  0.00  0.00    -0.507 OA
ATOM     23  H   UNL     1      70.862  84.335  23.559  0.00  0.00    +0.000 HD
ENDBRANCH  19  22
BRANCH  21  24
ATOM     24  O   UNL     1      68.468  80.058  23.509  0.00  0.00    -0.506 OA
ATOM     25  H   UNL     1      68.383  79.639  24.344  0.00  0.00    +0.000 HD
ENDBRANCH  21  24
ENDBRANCH  13  16
ENDBRANCH  11  12
ENDBRANCH   9  10
BRANCH   7  26
ATOM     26  C   UNL     1      60.997  75.741  20.286  0.00  0.00    +0.048 C 
BRANCH  26  27
ATOM     27  C   UNL     1      61.072  75.467  18.805  0.00  0.00    -0.028 A 
ATOM     28  C   UNL     1      59.918  75.127  18.085  0.00  0.00    -0.056 A 
ATOM     29  C   UNL     1      60.001  74.761  16.741  0.00  0.00    -0.047 A 
ATOM     30  C   UNL     1      61.240  74.744  16.106  0.00  0.00    +0.018 A 
ATOM     31  C   UNL     1      62.390  75.131  16.789  0.00  0.00    -0.047 A 
ATOM     32  C   UNL     1      62.305  75.493  18.136  0.00  0.00    -0.056 A 
ATOM     33 BR   UNL     1      61.364  74.157  14.314  0.00  0.00    -0.050 Br
ENDBRANCH  26  27
ENDBRANCH   7  26
TORSDOF 7
ENDMDL
