MODEL 1
REMARK VINA RESULT:   -10.273      0.000      0.000
REMARK INTER + INTRA:         -14.857
REMARK INTER:                 -13.876
REMARK INTRA:                  -0.981
REMARK UNBOUND:                -0.981
REMARK  Name = 26c.sdf
REMARK  7 active torsions:
REMARK  status: ('A' for Active; 'I' for Inactive)
REMARK    1  A    between atoms: N_7  and  C_10
REMARK    2  A    between atoms: C_9  and  C_18
REMARK    3  A    between atoms: C_10  and  C_11
REMARK    4  A    between atoms: N_19  and  N_20
REMARK    5  A    between atoms: C_21  and  C_23
REMARK    6  A    between atoms: C_26  and  O_29
REMARK    7  A    between atoms: C_28  and  O_30
REMARK                            x       y       z     vdW  Elec       q    Type
REMARK                         _______ _______ _______ _____ _____    ______ ____
ROOT
ATOM      1  C   UNL     1      64.533  73.099  22.656  0.00  0.00    -0.061 A 
ATOM      2  C   UNL     1      63.487  72.556  21.919  0.00  0.00    -0.060 A 
ATOM      3  C   UNL     1      62.654  73.369  21.143  0.00  0.00    -0.038 A 
ATOM      4  C   UNL     1      62.897  74.754  21.123  0.00  0.00    +0.050 A 
ATOM      5  C   UNL     1      63.983  75.314  21.813  0.00  0.00    +0.009 A 
ATOM      6  C   UNL     1      64.799  74.469  22.599  0.00  0.00    -0.052 A 
ATOM      7  N   UNL     1      62.221  75.800  20.522  0.00  0.00    -0.342 N 
ATOM      8  C   UNL     1      62.900  76.972  20.732  0.00  0.00    +0.015 A 
ATOM      9  C   UNL     1      64.002  76.713  21.523  0.00  0.00    +0.020 A 
ENDROOT
BRANCH   9  10
ATOM     10  C   UNL     1      64.974  77.694  21.958  0.00  0.00    +0.055 C 
ATOM     11  N   UNL     1      65.088  78.805  21.302  0.00  0.00    -0.187 NA
BRANCH  11  12
ATOM     12  N   UNL     1      66.039  79.660  21.786  0.00  0.00    -0.203 N 
ATOM     13  C   UNL     1      65.703  80.692  22.646  0.00  0.00    +0.267 C 
ATOM     14  O   UNL     1      64.566  80.934  23.040  0.00  0.00    -0.268 OA
ATOM     15  H   UNL     1      66.979  79.540  21.518  0.00  0.00    +0.000 HD
BRANCH  13  16
ATOM     16  C   UNL     1      66.845  81.555  23.103  0.00  0.00    +0.080 A 
ATOM     17  C   UNL     1      66.626  82.943  23.165  0.00  0.00    -0.043 A 
ATOM     18  C   UNL     1      67.641  83.814  23.576  0.00  0.00    -0.019 A 
ATOM     19  C   UNL     1      68.880  83.295  23.930  0.00  0.00    +0.120 A 
ATOM     20  C   UNL     1      69.120  81.927  23.886  0.00  0.00    +0.022 A 
ATOM     21  C   UNL     1      68.106  81.057  23.473  0.00  0.00    +0.132 A 
BRANCH  19  22
ATOM     22  O   UNL     1      69.906  84.100  24.327  0.00  0.00    -0.507 OA
ATOM     23  H   UNL     1      69.789  84.688  25.047  0.00  0.00    +0.000 HD
ENDBRANCH  19  22
BRANCH  21  24
ATOM     24  O   UNL     1      68.373  79.713  23.434  0.00  0.00    -0.506 OA
ATOM     25  H   UNL     1      68.835  79.306  24.141  0.00  0.00    +0.000 HD
ENDBRANCH  21  24
ENDBRANCH  13  16
ENDBRANCH  11  12
ENDBRANCH   9  10
BRANCH   7  26
ATOM     26  C   UNL     1      60.911  75.741  19.872  0.00  0.00    +0.048 C 
BRANCH  26  27
ATOM     27  C   UNL     1      61.028  75.447  18.397  0.00  0.00    -0.028 A 
ATOM     28  C   UNL     1      59.896  75.084  17.653  0.00  0.00    -0.055 A 
ATOM     29  C   UNL     1      60.022  74.668  16.328  0.00  0.00    -0.043 A 
ATOM     30  C   UNL     1      61.279  74.632  15.730  0.00  0.00    +0.041 A 
ATOM     31  C   UNL     1      62.404  75.063  16.428  0.00  0.00    -0.043 A 
ATOM     32  C   UNL     1      62.279  75.472  17.758  0.00  0.00    -0.055 A 
ATOM     33 CL   UNL     1      61.445  74.020  14.130  0.00  0.00    -0.084 Cl
ENDBRANCH  26  27
ENDBRANCH   7  26
TORSDOF 7
ENDMDL
