MODEL 1
REMARK VINA RESULT:    -9.544      0.000      0.000
REMARK INTER + INTRA:         -13.468
REMARK INTER:                 -12.613
REMARK INTRA:                  -0.854
REMARK UNBOUND:                -0.854
REMARK  Name = 27a.sdf
REMARK  6 active torsions:
REMARK  status: ('A' for Active; 'I' for Inactive)
REMARK    1  A    between atoms: N_7  and  C_10
REMARK    2  A    between atoms: C_9  and  C_18
REMARK    3  A    between atoms: C_10  and  C_11
REMARK    4  A    between atoms: N_19  and  N_20
REMARK    5  A    between atoms: C_21  and  C_23
REMARK    6  A    between atoms: C_26  and  N_29
REMARK                            x       y       z     vdW  Elec       q    Type
REMARK                         _______ _______ _______ _____ _____    ______ ____
ROOT
ATOM      1  C   UNL     1      66.523  73.896  24.486  0.00  0.00    -0.061 A 
ATOM      2  C   UNL     1      65.755  72.860  23.970  0.00  0.00    -0.060 A 
ATOM      3  C   UNL     1      64.636  73.123  23.173  0.00  0.00    -0.038 A 
ATOM      4  C   UNL     1      64.309  74.461  22.896  0.00  0.00    +0.050 A 
ATOM      5  C   UNL     1      65.097  75.521  23.367  0.00  0.00    +0.009 A 
ATOM      6  C   UNL     1      66.210  75.225  24.186  0.00  0.00    -0.052 A 
ATOM      7  N   UNL     1      63.260  75.022  22.193  0.00  0.00    -0.342 N 
ATOM      8  C   UNL     1      63.410  76.386  22.147  0.00  0.00    +0.015 A 
ATOM      9  C   UNL     1      64.542  76.735  22.854  0.00  0.00    +0.020 A 
ENDROOT
BRANCH   9  10
ATOM     10  C   UNL     1      65.058  78.077  23.035  0.00  0.00    +0.055 C 
ATOM     11  N   UNL     1      65.577  78.709  22.033  0.00  0.00    -0.187 NA
BRANCH  11  12
ATOM     12  N   UNL     1      66.050  79.964  22.297  0.00  0.00    -0.203 N 
ATOM     13  C   UNL     1      65.332  81.069  21.856  0.00  0.00    +0.263 C 
ATOM     14  O   UNL     1      64.269  81.028  21.240  0.00  0.00    -0.268 OA
ATOM     15  H   UNL     1      66.891  80.084  22.795  0.00  0.00    +0.000 HD
BRANCH  13  16
ATOM     16  C   UNL     1      65.915  82.398  22.207  0.00  0.00    +0.038 A 
ATOM     17  C   UNL     1      65.273  83.609  21.918  0.00  0.00    -0.048 A 
ATOM     18  C   UNL     1      65.874  84.823  22.275  0.00  0.00    -0.040 A 
ATOM     19  C   UNL     1      67.129  84.852  22.890  0.00  0.00    +0.025 A 
ATOM     20  C   UNL     1      67.721  83.641  23.253  0.00  0.00    -0.040 A 
ATOM     21  C   UNL     1      67.131  82.423  22.901  0.00  0.00    -0.048 A 
BRANCH  19  22
ATOM     22  N   UNL     1      67.662  86.061  23.349  0.00  0.00    -0.358 N 
ATOM     23  H   UNL     1      68.329  86.062  24.072  0.00  0.00    +0.000 HD
ATOM     24  H   UNL     1      67.371  86.911  22.946  0.00  0.00    +0.000 HD
ENDBRANCH  19  22
ENDBRANCH  13  16
ENDBRANCH  11  12
ENDBRANCH   9  10
BRANCH   7  25
ATOM     25  C   UNL     1      62.091  74.316  21.671  0.00  0.00    +0.048 C 
BRANCH  25  26
ATOM     26  C   UNL     1      61.877  74.594  20.204  0.00  0.00    -0.028 A 
ATOM     27  C   UNL     1      62.935  74.468  19.292  0.00  0.00    -0.056 A 
ATOM     28  C   UNL     1      62.770  74.838  17.956  0.00  0.00    -0.047 A 
ATOM     29  C   UNL     1      61.539  75.322  17.521  0.00  0.00    +0.018 A 
ATOM     30  C   UNL     1      60.460  75.399  18.399  0.00  0.00    -0.047 A 
ATOM     31  C   UNL     1      60.629  75.033  19.737  0.00  0.00    -0.056 A 
ATOM     32 BR   UNL     1      61.343  75.914  15.737  0.00  0.00    -0.050 Br
ENDBRANCH  25  26
ENDBRANCH   7  25
TORSDOF 6
ENDMDL
