MODEL 1
REMARK VINA RESULT:    -8.007      0.000      0.000
REMARK INTER + INTRA:          -9.113
REMARK INTER:                  -8.944
REMARK INTRA:                  -0.170
REMARK UNBOUND:                -0.170
REMARK  Name = 2.sdf
REMARK  2 active torsions:
REMARK  status: ('A' for Active; 'I' for Inactive)
REMARK    1  A    between atoms: C_9  and  C_10
REMARK    2  A    between atoms: C_11  and  C_12
REMARK                            x       y       z     vdW  Elec       q    Type
REMARK                         _______ _______ _______ _____ _____    ______ ____
ROOT
ATOM      1  C   UNL     1      62.168  75.158  15.482  0.00  0.00    -0.061 A 
ATOM      2  C   UNL     1      61.007  74.688  14.877  0.00  0.00    -0.060 A 
ATOM      3  C   UNL     1      59.849  74.466  15.624  0.00  0.00    -0.038 A 
ATOM      4  C   UNL     1      59.899  74.730  16.999  0.00  0.00    +0.047 A 
ATOM      5  C   UNL     1      61.045  75.207  17.644  0.00  0.00    +0.007 A 
ATOM      6  C   UNL     1      62.201  75.416  16.859  0.00  0.00    -0.052 A 
ATOM      7  N   UNL     1      58.921  74.586  17.955  0.00  0.00    -0.360 N 
ATOM      8  C   UNL     1      59.405  74.935  19.187  0.00  0.00    +0.010 A 
ATOM      9  C   UNL     1      60.714  75.342  19.032  0.00  0.00    +0.000 A 
ATOM     10  H   UNL     1      58.002  74.275  17.779  0.00  0.00    +0.000 HD
ENDROOT
BRANCH   9  11
ATOM     11  C   UNL     1      61.512  75.775  20.141  0.00  0.00    -0.046 C 
ATOM     12  C   UNL     1      62.030  74.969  21.081  0.00  0.00    +0.023 C 
BRANCH  12  13
ATOM     13  C   UNL     1      62.860  75.324  22.248  0.00  0.00    +0.330 C 
ATOM     14  O   UNL     1      64.131  74.891  22.244  0.00  0.00    -0.478 OA
ATOM     15  O   UNL     1      62.398  75.984  23.167  0.00  0.00    -0.246 OA
ENDBRANCH  12  13
ENDBRANCH   9  11
TORSDOF 2
ENDMDL
