MODEL 1
REMARK VINA RESULT:    -9.273      0.000      0.000
REMARK INTER + INTRA:         -12.115
REMARK INTER:                 -11.441
REMARK INTRA:                  -0.673
REMARK UNBOUND:                -0.673
REMARK  Name = 2a.sdf
REMARK  4 active torsions:
REMARK  status: ('A' for Active; 'I' for Inactive)
REMARK    1  A    between atoms: N_7  and  C_12
REMARK    2  A    between atoms: C_9  and  C_10
REMARK    3  A    between atoms: C_11  and  C_20
REMARK    4  A    between atoms: C_12  and  C_13
REMARK                            x       y       z     vdW  Elec       q    Type
REMARK                         _______ _______ _______ _____ _____    ______ ____
ROOT
ATOM      1  C   UNL     1      64.747  72.914  22.371  0.00  0.00    -0.061 A 
ATOM      2  C   UNL     1      63.805  72.381  21.508  0.00  0.00    -0.060 A 
ATOM      3  C   UNL     1      62.914  73.211  20.812  0.00  0.00    -0.038 A 
ATOM      4  C   UNL     1      62.915  74.597  21.067  0.00  0.00    +0.050 A 
ATOM      5  C   UNL     1      63.903  75.156  21.896  0.00  0.00    +0.007 A 
ATOM      6  C   UNL     1      64.832  74.297  22.537  0.00  0.00    -0.052 A 
ATOM      7  N   UNL     1      62.091  75.635  20.650  0.00  0.00    -0.342 N 
ATOM      8  C   UNL     1      62.608  76.833  21.117  0.00  0.00    +0.013 A 
ATOM      9  C   UNL     1      63.733  76.573  21.863  0.00  0.00    +0.000 A 
ENDROOT
BRANCH   9  10
ATOM     10  C   UNL     1      64.596  77.532  22.491  0.00  0.00    -0.046 C 
ATOM     11  C   UNL     1      65.139  78.609  21.906  0.00  0.00    +0.023 C 
BRANCH  11  12
ATOM     12  C   UNL     1      66.029  79.619  22.520  0.00  0.00    +0.330 C 
ATOM     13  O   UNL     1      65.518  80.860  22.654  0.00  0.00    -0.478 OA
ATOM     14  O   UNL     1      67.135  79.324  22.911  0.00  0.00    -0.246 OA
ENDBRANCH  11  12
ENDBRANCH   9  10
BRANCH   7  15
ATOM     15  C   UNL     1      60.780  75.573  19.975  0.00  0.00    +0.048 C 
BRANCH  15  16
ATOM     16  C   UNL     1      60.867  75.433  18.473  0.00  0.00    -0.028 A 
ATOM     17  C   UNL     1      59.731  75.081  17.727  0.00  0.00    -0.056 A 
ATOM     18  C   UNL     1      59.856  74.664  16.399  0.00  0.00    -0.047 A 
ATOM     19  C   UNL     1      61.110  74.667  15.793  0.00  0.00    +0.018 A 
ATOM     20  C   UNL     1      62.224  75.156  16.472  0.00  0.00    -0.047 A 
ATOM     21  C   UNL     1      62.103  75.542  17.810  0.00  0.00    -0.056 A 
ATOM     22 BR   UNL     1      61.326  73.893  14.081  0.00  0.00    -0.050 Br
ENDBRANCH  15  16
ENDBRANCH   7  15
TORSDOF 4
ENDMDL
