MODEL 1
REMARK VINA RESULT:    -8.858      0.000      0.000
REMARK INTER + INTRA:         -10.471
REMARK INTER:                 -10.153
REMARK INTRA:                  -0.318
REMARK UNBOUND:                -0.318
REMARK  Name = 4d.sdf
REMARK  3 active torsions:
REMARK  status: ('A' for Active; 'I' for Inactive)
REMARK    1  A    between atoms: C_9  and  C_10
REMARK    2  A    between atoms: C_10  and  O_18
REMARK    3  A    between atoms: C_11  and  C_12
REMARK                            x       y       z     vdW  Elec       q    Type
REMARK                         _______ _______ _______ _____ _____    ______ ____
ROOT
ATOM      1  C   UNL     1      65.709  75.395  24.017  0.00  0.00    -0.061 A 
ATOM      2  C   UNL     1      65.139  74.214  23.558  0.00  0.00    -0.060 A 
ATOM      3  C   UNL     1      64.263  74.216  22.469  0.00  0.00    -0.037 A 
ATOM      4  C   UNL     1      63.961  75.443  21.849  0.00  0.00    +0.057 A 
ATOM      5  C   UNL     1      64.532  76.642  22.295  0.00  0.00    +0.006 A 
ATOM      6  C   UNL     1      65.414  76.611  23.396  0.00  0.00    -0.052 A 
ATOM      7  N   UNL     1      63.176  75.735  20.734  0.00  0.00    -0.283 N 
ATOM      8  C   UNL     1      63.211  77.107  20.542  0.00  0.00    +0.019 A 
ATOM      9  C   UNL     1      64.049  77.694  21.463  0.00  0.00    +0.004 A 
ATOM     10  C   UNL     1      62.469  74.817  19.913  0.00  0.00    +0.263 C 
ATOM     11  O   UNL     1      62.148  73.733  20.389  0.00  0.00    -0.267 OA
ENDROOT
BRANCH  10  12
ATOM     12  C   UNL     1      62.103  75.119  18.504  0.00  0.00    +0.040 A 
ATOM     13  C   UNL     1      60.800  75.531  18.192  0.00  0.00    -0.049 A 
ATOM     14  C   UNL     1      60.436  75.753  16.864  0.00  0.00    -0.061 A 
ATOM     15  C   UNL     1      61.380  75.596  15.852  0.00  0.00    -0.062 A 
ATOM     16  C   UNL     1      62.695  75.244  16.167  0.00  0.00    -0.061 A 
ATOM     17  C   UNL     1      63.063  75.012  17.493  0.00  0.00    -0.049 A 
ENDBRANCH  10  12
BRANCH   9  18
ATOM     18  C   UNL     1      64.375  79.144  21.556  0.00  0.00    +0.071 C 
BRANCH  18  19
ATOM     19  O   UNL     1      64.279  79.776  20.285  0.00  0.00    -0.390 OA
ATOM     20  H   UNL     1      64.033  79.119  19.615  0.00  0.00    +0.000 HD
ENDBRANCH  18  19
ENDBRANCH   9  18
TORSDOF 3
ENDMDL
