MODEL 1
REMARK VINA RESULT:    -7.969      0.000      0.000
REMARK INTER + INTRA:          -9.588
REMARK INTER:                  -9.366
REMARK INTRA:                  -0.221
REMARK UNBOUND:                -0.221
REMARK  Name = 5.sdf
REMARK  4 active torsions:
REMARK  status: ('A' for Active; 'I' for Inactive)
REMARK    1  A    between atoms: C_9  and  C_10
REMARK    2  A    between atoms: C_11  and  C_12
REMARK    3  A    between atoms: C_12  and  O_13
REMARK    4  A    between atoms: O_13  and  C_15
REMARK                            x       y       z     vdW  Elec       q    Type
REMARK                         _______ _______ _______ _____ _____    ______ ____
ROOT
ATOM      1  C   UNL     1      62.190  75.150  15.499  0.00  0.00    -0.061 A 
ATOM      2  C   UNL     1      61.026  74.690  14.887  0.00  0.00    -0.060 A 
ATOM      3  C   UNL     1      59.871  74.471  15.637  0.00  0.00    -0.038 A 
ATOM      4  C   UNL     1      59.929  74.724  17.012  0.00  0.00    +0.047 A 
ATOM      5  C   UNL     1      61.076  75.187  17.669  0.00  0.00    +0.007 A 
ATOM      6  C   UNL     1      62.229  75.401  16.882  0.00  0.00    -0.052 A 
ATOM      7  N   UNL     1      58.944  74.593  17.960  0.00  0.00    -0.360 N 
ATOM      8  C   UNL     1      59.422  74.944  19.192  0.00  0.00    +0.010 A 
ATOM      9  C   UNL     1      60.745  75.322  19.065  0.00  0.00    +0.000 A 
ATOM     10  H   UNL     1      58.025  74.290  17.779  0.00  0.00    +0.000 HD
ENDROOT
BRANCH   9  11
ATOM     11  C   UNL     1      61.583  75.758  20.158  0.00  0.00    -0.046 C 
ATOM     12  C   UNL     1      62.039  74.935  21.126  0.00  0.00    +0.023 C 
BRANCH  12  13
ATOM     13  C   UNL     1      62.892  75.214  22.298  0.00  0.00    +0.332 C 
ATOM     14  O   UNL     1      62.420  75.732  23.302  0.00  0.00    -0.246 OA
BRANCH  13  15
ATOM     15  O   UNL     1      64.188  74.852  22.141  0.00  0.00    -0.465 OA
ATOM     16  C   UNL     1      64.380  73.434  22.242  0.00  0.00    +0.082 C 
ENDBRANCH  13  15
ENDBRANCH  12  13
ENDBRANCH   9  11
TORSDOF 3
ENDMDL
