MODEL 1
REMARK VINA RESULT:    -9.002      0.000      0.000
REMARK INTER + INTRA:         -12.224
REMARK INTER:                 -11.633
REMARK INTRA:                  -0.591
REMARK UNBOUND:                -0.591
REMARK  Name = 7c.sdf
REMARK  6 active torsions:
REMARK  status: ('A' for Active; 'I' for Inactive)
REMARK    1  A    between atoms: N_7  and  C_12
REMARK    2  A    between atoms: C_9  and  C_10
REMARK    3  A    between atoms: C_10  and  C_11
REMARK    4  A    between atoms: C_11  and  O_21
REMARK    5  A    between atoms: C_12  and  C_13
REMARK    6  A    between atoms: O_21  and  C_22
REMARK                            x       y       z     vdW  Elec       q    Type
REMARK                         _______ _______ _______ _____ _____    ______ ____
ROOT
ATOM      1  C   UNL     1      64.521  72.887  22.141  0.00  0.00    -0.061 A 
ATOM      2  C   UNL     1      63.494  72.351  21.373  0.00  0.00    -0.060 A 
ATOM      3  C   UNL     1      62.542  73.177  20.767  0.00  0.00    -0.038 A 
ATOM      4  C   UNL     1      62.654  74.567  20.946  0.00  0.00    +0.050 A 
ATOM      5  C   UNL     1      63.706  75.129  21.677  0.00  0.00    +0.004 A 
ATOM      6  C   UNL     1      64.642  74.271  22.293  0.00  0.00    -0.052 A 
ATOM      7  N   UNL     1      61.858  75.613  20.521  0.00  0.00    -0.342 N 
ATOM      8  C   UNL     1      62.419  76.810  20.895  0.00  0.00    +0.010 A 
ATOM      9  C   UNL     1      63.570  76.552  21.613  0.00  0.00    -0.012 A 
ENDROOT
BRANCH   9  10
ATOM     10  C   UNL     1      64.494  77.569  22.200  0.00  0.00    +0.072 C 
BRANCH  10  11
ATOM     11  C   UNL     1      63.935  78.976  22.167  0.00  0.00    +0.311 C 
ATOM     12  O   UNL     1      63.169  79.481  22.974  0.00  0.00    -0.250 OA
BRANCH  11  13
ATOM     13  O   UNL     1      64.418  79.618  21.057  0.00  0.00    -0.468 OA
ATOM     14  C   UNL     1      64.581  81.026  21.233  0.00  0.00    +0.082 C 
ENDBRANCH  11  13
ENDBRANCH  10  11
ENDBRANCH   9  10
BRANCH   7  15
ATOM     15  C   UNL     1      60.566  75.501  19.849  0.00  0.00    +0.048 C 
BRANCH  15  16
ATOM     16  C   UNL     1      60.738  75.275  18.367  0.00  0.00    -0.028 A 
ATOM     17  C   UNL     1      59.668  74.809  17.590  0.00  0.00    -0.055 A 
ATOM     18  C   UNL     1      59.858  74.480  16.247  0.00  0.00    -0.043 A 
ATOM     19  C   UNL     1      61.117  74.623  15.671  0.00  0.00    +0.041 A 
ATOM     20  C   UNL     1      62.179  75.131  16.414  0.00  0.00    -0.043 A 
ATOM     21  C   UNL     1      61.990  75.460  17.758  0.00  0.00    -0.055 A 
ATOM     22 CL   UNL     1      61.368  74.148  14.037  0.00  0.00    -0.084 Cl
ENDBRANCH  15  16
ENDBRANCH   7  15
TORSDOF 5
ENDMDL
