MODEL 1
REMARK VINA RESULT:    -9.378      0.000      0.000
REMARK INTER + INTRA:         -11.339
REMARK INTER:                 -11.023
REMARK INTRA:                  -0.316
REMARK UNBOUND:                -0.316
REMARK  Name = 8.sdf
REMARK  3 active torsions:
REMARK  status: ('A' for Active; 'I' for Inactive)
REMARK    1  A    between atoms: C_9  and  C_10
REMARK    2  A    between atoms: N_11  and  N_12
REMARK    3  A    between atoms: C_13  and  C_15
REMARK                            x       y       z     vdW  Elec       q    Type
REMARK                         _______ _______ _______ _____ _____    ______ ____
ROOT
ATOM      1  C   UNL     1      61.372  75.215  20.126  0.00  0.00    +0.055 C 
ATOM      2  N   UNL     1      61.889  74.180  20.702  0.00  0.00    -0.187 NA
ENDROOT
BRANCH   1  11
ATOM      3  C   UNL     1      62.440  75.057  15.547  0.00  0.00    -0.061 A 
ATOM      4  C   UNL     1      61.316  74.821  14.760  0.00  0.00    -0.060 A 
ATOM      5  C   UNL     1      60.054  74.673  15.340  0.00  0.00    -0.038 A 
ATOM      6  C   UNL     1      59.965  74.764  16.734  0.00  0.00    +0.047 A 
ATOM      7  C   UNL     1      61.072  74.996  17.555  0.00  0.00    +0.008 A 
ATOM      8  C   UNL     1      62.334  75.149  16.941  0.00  0.00    -0.052 A 
ATOM      9  N   UNL     1      58.866  74.654  17.554  0.00  0.00    -0.360 N 
ATOM     10  C   UNL     1      59.239  74.799  18.859  0.00  0.00    +0.011 A 
ATOM     11  C   UNL     1      60.605  75.017  18.910  0.00  0.00    +0.020 A 
ATOM     12  H   UNL     1      57.945  74.495  17.245  0.00  0.00    +0.000 HD
ENDBRANCH   1  11
BRANCH   2  13
ATOM     13  N   UNL     1      62.615  74.379  21.841  0.00  0.00    -0.203 N 
ATOM     14  C   UNL     1      63.380  73.322  22.323  0.00  0.00    +0.263 C 
ATOM     15  O   UNL     1      63.464  72.219  21.790  0.00  0.00    -0.268 OA
ATOM     16  H   UNL     1      62.598  75.245  22.308  0.00  0.00    +0.000 HD
BRANCH  14  17
ATOM     17  C   UNL     1      64.166  73.571  23.565  0.00  0.00    +0.038 A 
ATOM     18  C   UNL     1      65.565  73.520  23.597  0.00  0.00    -0.049 A 
ATOM     19  C   UNL     1      66.248  73.814  24.784  0.00  0.00    -0.047 A 
ATOM     20  C   UNL     1      65.536  74.160  25.933  0.00  0.00    +0.018 A 
ATOM     21  C   UNL     1      64.144  74.219  25.911  0.00  0.00    -0.047 A 
ATOM     22  C   UNL     1      63.462  73.930  24.726  0.00  0.00    -0.049 A 
ATOM     23 BR   UNL     1      66.465  74.574  27.525  0.00  0.00    -0.050 Br
ENDBRANCH  14  17
ENDBRANCH   2  13
TORSDOF 3
ENDMDL
