MODEL 1
REMARK VINA RESULT:   -11.827      0.000      0.000
REMARK INTER + INTRA:         -15.115
REMARK INTER:                 -13.901
REMARK INTRA:                  -1.214
REMARK UNBOUND:                -1.214
REMARK  Name = native.pdb
REMARK  4 active torsions:
REMARK  status: ('A' for Active; 'I' for Inactive)
REMARK    1  A    between atoms: C_1  and  N_2
REMARK    2  A    between atoms: N_5  and  C_8
REMARK    3  A    between atoms: C_10  and  C_11
REMARK    4  A    between atoms: C_17  and  C_20
REMARK                            x       y       z     vdW  Elec       q    Type
REMARK                         _______ _______ _______ _____ _____    ______ ____
ROOT
ATOM      1  C   UNL     1      65.216  77.939  22.416  0.00  0.00    +0.144 A 
ATOM      2  C   UNL     1      64.724  76.689  22.758  0.00  0.00    -0.010 A 
ATOM      3  C   UNL     1      63.860  75.948  21.931  0.00  0.00    +0.013 A 
ATOM      4  C   UNL     1      63.498  76.560  20.718  0.00  0.00    +0.101 A 
ATOM      5  N   UNL     1      64.028  77.767  20.375  0.00  0.00    -0.147 NA
ATOM      6  N   UNL     1      64.898  78.447  21.220  0.00  0.00    -0.134 NA
ENDROOT
BRANCH   4   7
ATOM      7  C   UNL     1      62.548  76.016  19.711  0.00  0.00    +0.003 A 
ATOM      8  C   UNL     1      62.971  75.617  18.430  0.00  0.00    -0.045 A 
ATOM      9  C   UNL     1      62.064  75.276  17.414  0.00  0.00    -0.017 A 
ATOM     10  C   UNL     1      62.503  75.057  16.097  0.00  0.00    -0.054 A 
ATOM     11  C   UNL     1      61.597  74.719  15.092  0.00  0.00    -0.061 A 
ATOM     12  C   UNL     1      60.246  74.583  15.395  0.00  0.00    -0.061 A 
ATOM     13  C   UNL     1      59.793  74.815  16.696  0.00  0.00    -0.054 A 
ATOM     14  C   UNL     1      60.689  75.189  17.713  0.00  0.00    -0.018 A 
ATOM     15  C   UNL     1      60.265  75.484  19.016  0.00  0.00    -0.053 A 
ATOM     16  C   UNL     1      61.175  75.910  19.987  0.00  0.00    -0.052 A 
ENDBRANCH   4   7
BRANCH   1  21
ATOM     17  C   UNL     1      68.231  80.856  26.067  0.00  0.00    -0.013 C 
ATOM     18  N   UNL     1      67.992  79.829  25.053  0.00  0.00    -0.302 N 
ATOM     19  C   UNL     1      66.983  78.848  25.537  0.00  0.00    +0.014 C 
ATOM     20  C   UNL     1      66.573  77.805  24.461  0.00  0.00    +0.026 C 
ATOM     21  N   UNL     1      66.085  78.554  23.303  0.00  0.00    -0.311 N 
ATOM     22  C   UNL     1      67.122  79.421  22.721  0.00  0.00    +0.026 C 
ATOM     23  C   UNL     1      67.534  80.457  23.792  0.00  0.00    +0.014 C 
ATOM     24  H   UNL     1      68.866  79.332  24.877  0.00  0.00    +0.000 HD
ENDBRANCH   1  21
BRANCH   3  25
ATOM     25  C   UNL     1      63.426  74.608  22.414  0.00  0.00    -0.013 A 
ATOM     26  C   UNL     1      62.461  74.489  23.429  0.00  0.00    -0.036 A 
ATOM     27  C   UNL     1      62.023  73.234  23.821  0.00  0.00    +0.028 A 
ATOM     28  N   UNL     1      62.449  72.088  23.259  0.00  0.00    -0.263 NA
ATOM     29  C   UNL     1      63.394  72.203  22.306  0.00  0.00    +0.028 A 
ATOM     30  C   UNL     1      63.936  73.412  21.894  0.00  0.00    -0.036 A 
ENDBRANCH   3  25
TORSDOF 3
ENDMDL
