MODEL 1
REMARK VINA RESULT:    -7.770      0.000      0.000
REMARK INTER + INTRA:          -9.146
REMARK INTER:                  -8.679
REMARK INTRA:                  -0.467
REMARK UNBOUND:                -0.467
REMARK  Name = 0b.sdf
REMARK  2 active torsions:
REMARK  status: ('A' for Active; 'I' for Inactive)
REMARK    1  A    between atoms: N_7  and  C_10
REMARK    2  A    between atoms: C_10  and  C_11
REMARK                            x       y       z     vdW  Elec       q    Type
REMARK                         _______ _______ _______ _____ _____    ______ ____
ROOT
ATOM      1  C   UNL     1      56.288 -16.763 -12.880  0.00  0.00    -0.061 A 
ATOM      2  C   UNL     1      55.712 -15.518 -13.108  0.00  0.00    -0.060 A 
ATOM      3  C   UNL     1      54.358 -15.399 -13.437  0.00  0.00    -0.038 A 
ATOM      4  C   UNL     1      53.589 -16.572 -13.525  0.00  0.00    +0.049 A 
ATOM      5  C   UNL     1      54.146 -17.831 -13.272  0.00  0.00    -0.000 A 
ATOM      6  C   UNL     1      55.516 -17.926 -12.955  0.00  0.00    -0.053 A 
ATOM      7  N   UNL     1      52.263 -16.780 -13.857  0.00  0.00    -0.342 N 
ATOM      8  C   UNL     1      51.963 -18.120 -13.769  0.00  0.00    +0.006 A 
ATOM      9  C   UNL     1      53.109 -18.790 -13.413  0.00  0.00    -0.036 A 
ENDROOT
BRANCH   7  10
ATOM     10  C   UNL     1      51.337 -15.775 -14.368  0.00  0.00    +0.048 C 
BRANCH  10  11
ATOM     11  C   UNL     1      50.361 -15.306 -13.322  0.00  0.00    -0.025 A 
ATOM     12  C   UNL     1      49.093 -15.883 -13.212  0.00  0.00    -0.039 A 
ATOM     13  C   UNL     1      48.227 -15.414 -12.238  0.00  0.00    +0.028 A 
ATOM     14  N   UNL     1      48.537 -14.429 -11.370  0.00  0.00    -0.263 NA
ATOM     15  C   UNL     1      49.764 -13.881 -11.490  0.00  0.00    +0.028 A 
ATOM     16  C   UNL     1      50.698 -14.278 -12.432  0.00  0.00    -0.039 A 
ENDBRANCH  10  11
ENDBRANCH   7  10
TORSDOF 2
ENDMDL
MODEL 2
REMARK VINA RESULT:    -7.633      1.400      5.852
REMARK INTER + INTRA:          -8.993
REMARK INTER:                  -8.529
REMARK INTRA:                  -0.464
REMARK UNBOUND:                -0.467
REMARK  Name = 0b.sdf
REMARK  2 active torsions:
REMARK  status: ('A' for Active; 'I' for Inactive)
REMARK    1  A    between atoms: N_7  and  C_10
REMARK    2  A    between atoms: C_10  and  C_11
REMARK                            x       y       z     vdW  Elec       q    Type
REMARK                         _______ _______ _______ _____ _____    ______ ____
ROOT
ATOM      1  C   UNL     1      47.641 -16.430 -13.212  0.00  0.00    -0.061 A 
ATOM      2  C   UNL     1      48.501 -16.935 -14.182  0.00  0.00    -0.060 A 
ATOM      3  C   UNL     1      49.815 -16.467 -14.296  0.00  0.00    -0.038 A 
ATOM      4  C   UNL     1      50.248 -15.476 -13.399  0.00  0.00    +0.049 A 
ATOM      5  C   UNL     1      49.405 -14.976 -12.399  0.00  0.00    -0.000 A 
ATOM      6  C   UNL     1      48.082 -15.454 -12.313  0.00  0.00    -0.053 A 
ATOM      7  N   UNL     1      51.450 -14.802 -13.281  0.00  0.00    -0.342 N 
ATOM      8  C   UNL     1      51.400 -13.938 -12.212  0.00  0.00    +0.006 A 
ATOM      9  C   UNL     1      50.148 -14.025 -11.653  0.00  0.00    -0.036 A 
ENDROOT
BRANCH   7  10
ATOM     10  C   UNL     1      52.566 -14.867 -14.219  0.00  0.00    +0.048 C 
BRANCH  10  11
ATOM     11  C   UNL     1      53.634 -15.832 -13.778  0.00  0.00    -0.025 A 
ATOM     12  C   UNL     1      54.893 -15.376 -13.376  0.00  0.00    -0.039 A 
ATOM     13  C   UNL     1      55.845 -16.302 -12.984  0.00  0.00    +0.028 A 
ATOM     14  N   UNL     1      55.630 -17.633 -12.956  0.00  0.00    -0.263 NA
ATOM     15  C   UNL     1      54.411 -18.058 -13.349  0.00  0.00    +0.028 A 
ATOM     16  C   UNL     1      53.395 -17.211 -13.760  0.00  0.00    -0.039 A 
ENDBRANCH  10  11
ENDBRANCH   7  10
TORSDOF 2
ENDMDL
MODEL 3
REMARK VINA RESULT:    -7.217      1.820      5.941
REMARK INTER + INTRA:          -8.527
REMARK INTER:                  -8.042
REMARK INTRA:                  -0.486
REMARK UNBOUND:                -0.467
REMARK  Name = 0b.sdf
REMARK  2 active torsions:
REMARK  status: ('A' for Active; 'I' for Inactive)
REMARK    1  A    between atoms: N_7  and  C_10
REMARK    2  A    between atoms: C_10  and  C_11
REMARK                            x       y       z     vdW  Elec       q    Type
REMARK                         _______ _______ _______ _____ _____    ______ ____
ROOT
ATOM      1  C   UNL     1      49.085 -15.014 -11.938  0.00  0.00    -0.061 A 
ATOM      2  C   UNL     1      49.500 -16.266 -12.377  0.00  0.00    -0.060 A 
ATOM      3  C   UNL     1      50.813 -16.482 -12.808  0.00  0.00    -0.038 A 
ATOM      4  C   UNL     1      51.709 -15.400 -12.778  0.00  0.00    +0.049 A 
ATOM      5  C   UNL     1      51.317 -14.139 -12.313  0.00  0.00    -0.000 A 
ATOM      6  C   UNL     1      49.984 -13.944 -11.898  0.00  0.00    -0.053 A 
ATOM      7  N   UNL     1      53.033 -15.290 -13.162  0.00  0.00    -0.342 N 
ATOM      8  C   UNL     1      53.492 -14.020 -12.905  0.00  0.00    +0.006 A 
ATOM      9  C   UNL     1      52.451 -13.289 -12.384  0.00  0.00    -0.036 A 
ENDROOT
BRANCH   7  10
ATOM     10  C   UNL     1      53.809 -16.304 -13.870  0.00  0.00    +0.048 C 
BRANCH  10  11
ATOM     11  C   UNL     1      54.821 -16.978 -12.983  0.00  0.00    -0.025 A 
ATOM     12  C   UNL     1      56.180 -16.661 -13.073  0.00  0.00    -0.039 A 
ATOM     13  C   UNL     1      57.074 -17.311 -12.240  0.00  0.00    +0.028 A 
ATOM     14  N   UNL     1      56.713 -18.238 -11.328  0.00  0.00    -0.263 NA
ATOM     15  C   UNL     1      55.399 -18.535 -11.255  0.00  0.00    +0.028 A 
ATOM     16  C   UNL     1      54.429 -17.941 -12.046  0.00  0.00    -0.039 A 
ENDBRANCH  10  11
ENDBRANCH   7  10
TORSDOF 2
ENDMDL
