MODEL 1
REMARK VINA RESULT:    -6.854      0.000      0.000
REMARK INTER + INTRA:          -8.236
REMARK INTER:                  -8.056
REMARK INTRA:                  -0.180
REMARK UNBOUND:                -0.180
REMARK  Name = 14.sdf
REMARK  4 active torsions:
REMARK  status: ('A' for Active; 'I' for Inactive)
REMARK    1  A    between atoms: C_9  and  C_10
REMARK    2  A    between atoms: C_10  and  O_11
REMARK    3  A    between atoms: O_11  and  C_12
REMARK    4  A    between atoms: C_12  and  C_13
REMARK                            x       y       z     vdW  Elec       q    Type
REMARK                         _______ _______ _______ _____ _____    ______ ____
ROOT
ATOM      1  C   UNL     1      49.610 -16.846 -14.815  0.00  0.00    -0.061 A 
ATOM      2  C   UNL     1      48.404 -16.836 -14.123  0.00  0.00    -0.060 A 
ATOM      3  C   UNL     1      48.211 -15.985 -13.031  0.00  0.00    -0.038 A 
ATOM      4  C   UNL     1      49.275 -15.153 -12.655  0.00  0.00    +0.047 A 
ATOM      5  C   UNL     1      50.500 -15.141 -13.324  0.00  0.00    +0.006 A 
ATOM      6  C   UNL     1      50.660 -16.004 -14.430  0.00  0.00    -0.052 A 
ATOM      7  N   UNL     1      49.363 -14.240 -11.631  0.00  0.00    -0.360 N 
ATOM      8  C   UNL     1      50.602 -13.659 -11.619  0.00  0.00    +0.009 A 
ATOM      9  C   UNL     1      51.346 -14.189 -12.661  0.00  0.00    +0.015 A 
ATOM     10  H   UNL     1      48.638 -14.033 -10.998  0.00  0.00    +0.000 HD
ENDROOT
BRANCH   9  11
ATOM     11  C   UNL     1      52.763 -13.831 -13.013  0.00  0.00    +0.119 C 
BRANCH  11  12
ATOM     12  O   UNL     1      53.685 -14.929 -12.736  0.00  0.00    -0.460 OA
BRANCH  12  13
ATOM     13  C   UNL     1      55.026 -14.696 -12.868  0.00  0.00    +0.304 C 
ATOM     14  C   UNL     1      55.874 -15.945 -12.962  0.00  0.00    +0.033 C 
ATOM     15  O   UNL     1      55.541 -13.595 -12.903  0.00  0.00    -0.251 OA
ENDBRANCH  12  13
ENDBRANCH  11  12
ENDBRANCH   9  11
TORSDOF 3
ENDMDL
MODEL 2
REMARK VINA RESULT:    -6.575      2.710      5.209
REMARK INTER + INTRA:          -7.909
REMARK INTER:                  -7.548
REMARK INTRA:                  -0.361
REMARK UNBOUND:                -0.180
REMARK  Name = 14.sdf
REMARK  4 active torsions:
REMARK  status: ('A' for Active; 'I' for Inactive)
REMARK    1  A    between atoms: C_9  and  C_10
REMARK    2  A    between atoms: C_10  and  O_11
REMARK    3  A    between atoms: O_11  and  C_12
REMARK    4  A    between atoms: C_12  and  C_13
REMARK                            x       y       z     vdW  Elec       q    Type
REMARK                         _______ _______ _______ _____ _____    ______ ____
ROOT
ATOM      1  C   UNL     1      54.125 -18.390 -13.464  0.00  0.00    -0.061 A 
ATOM      2  C   UNL     1      55.486 -18.413 -13.180  0.00  0.00    -0.060 A 
ATOM      3  C   UNL     1      56.186 -17.230 -12.928  0.00  0.00    -0.038 A 
ATOM      4  C   UNL     1      55.472 -16.025 -12.981  0.00  0.00    +0.047 A 
ATOM      5  C   UNL     1      54.108 -15.964 -13.267  0.00  0.00    +0.006 A 
ATOM      6  C   UNL     1      53.426 -17.178 -13.507  0.00  0.00    -0.052 A 
ATOM      7  N   UNL     1      55.904 -14.734 -12.788  0.00  0.00    -0.360 N 
ATOM      8  C   UNL     1      54.866 -13.857 -12.953  0.00  0.00    +0.009 A 
ATOM      9  C   UNL     1      53.723 -14.581 -13.251  0.00  0.00    +0.015 A 
ATOM     10  H   UNL     1      56.827 -14.477 -12.562  0.00  0.00    +0.000 HD
ENDROOT
BRANCH   9  11
ATOM     11  C   UNL     1      52.354 -14.015 -13.509  0.00  0.00    +0.119 C 
BRANCH  11  12
ATOM     12  O   UNL     1      51.580 -13.884 -12.277  0.00  0.00    -0.460 OA
BRANCH  12  13
ATOM     13  C   UNL     1      50.291 -14.341 -12.271  0.00  0.00    +0.304 C 
ATOM     14  C   UNL     1      50.022 -15.472 -13.238  0.00  0.00    +0.033 C 
ATOM     15  O   UNL     1      49.400 -13.902 -11.570  0.00  0.00    -0.251 OA
ENDBRANCH  12  13
ENDBRANCH  11  12
ENDBRANCH   9  11
TORSDOF 3
ENDMDL
MODEL 3
REMARK VINA RESULT:    -6.480      1.940      2.917
REMARK INTER + INTRA:          -7.797
REMARK INTER:                  -7.438
REMARK INTRA:                  -0.359
REMARK UNBOUND:                -0.180
REMARK  Name = 14.sdf
REMARK  4 active torsions:
REMARK  status: ('A' for Active; 'I' for Inactive)
REMARK    1  A    between atoms: C_9  and  C_10
REMARK    2  A    between atoms: C_10  and  O_11
REMARK    3  A    between atoms: O_11  and  C_12
REMARK    4  A    between atoms: C_12  and  C_13
REMARK                            x       y       z     vdW  Elec       q    Type
REMARK                         _______ _______ _______ _____ _____    ______ ____
ROOT
ATOM      1  C   UNL     1      50.512 -13.815 -11.950  0.00  0.00    -0.061 A 
ATOM      2  C   UNL     1      49.255 -14.351 -11.692  0.00  0.00    -0.060 A 
ATOM      3  C   UNL     1      48.985 -15.699 -11.942  0.00  0.00    -0.038 A 
ATOM      4  C   UNL     1      50.020 -16.486 -12.467  0.00  0.00    +0.047 A 
ATOM      5  C   UNL     1      51.291 -15.981 -12.742  0.00  0.00    +0.006 A 
ATOM      6  C   UNL     1      51.536 -14.617 -12.469  0.00  0.00    -0.052 A 
ATOM      7  N   UNL     1      50.029 -17.817 -12.811  0.00  0.00    -0.360 N 
ATOM      8  C   UNL     1      51.256 -18.171 -13.305  0.00  0.00    +0.009 A 
ATOM      9  C   UNL     1      52.078 -17.056 -13.278  0.00  0.00    +0.015 A 
ATOM     10  H   UNL     1      49.263 -18.429 -12.715  0.00  0.00    +0.000 HD
ENDROOT
BRANCH   9  11
ATOM     11  C   UNL     1      53.511 -16.997 -13.729  0.00  0.00    +0.119 C 
BRANCH  11  12
ATOM     12  O   UNL     1      54.414 -16.675 -12.626  0.00  0.00    -0.460 OA
BRANCH  12  13
ATOM     13  C   UNL     1      55.541 -15.952 -12.905  0.00  0.00    +0.304 C 
ATOM     14  C   UNL     1      55.306 -14.470 -13.093  0.00  0.00    +0.033 C 
ATOM     15  O   UNL     1      56.659 -16.419 -13.008  0.00  0.00    -0.251 OA
ENDBRANCH  12  13
ENDBRANCH  11  12
ENDBRANCH   9  11
TORSDOF 3
ENDMDL
