MODEL 1
REMARK VINA RESULT:    -7.318      0.000      0.000
REMARK INTER + INTRA:          -8.812
REMARK INTER:                  -8.602
REMARK INTRA:                  -0.210
REMARK UNBOUND:                -0.210
REMARK  Name = 14e.sdf
REMARK  5 active torsions:
REMARK  status: ('A' for Active; 'I' for Inactive)
REMARK    1  A    between atoms: C_9  and  C_10
REMARK    2  A    between atoms: C_10  and  O_11
REMARK    3  A    between atoms: O_11  and  C_12
REMARK    4  A    between atoms: C_12  and  C_13
REMARK    5  A    between atoms: C_15  and  C_16
REMARK                            x       y       z     vdW  Elec       q    Type
REMARK                         _______ _______ _______ _____ _____    ______ ____
ROOT
ATOM      1  C   UNL     1      50.682 -13.631 -11.558  0.00  0.00    -0.061 A 
ATOM      2  C   UNL     1      49.339 -13.967 -11.641  0.00  0.00    -0.060 A 
ATOM      3  C   UNL     1      48.934 -15.152 -12.262  0.00  0.00    -0.037 A 
ATOM      4  C   UNL     1      49.912 -16.007 -12.813  0.00  0.00    +0.057 A 
ATOM      5  C   UNL     1      51.269 -15.675 -12.740  0.00  0.00    +0.007 A 
ATOM      6  C   UNL     1      51.652 -14.478 -12.096  0.00  0.00    -0.052 A 
ATOM      7  N   UNL     1      49.794 -17.239 -13.475  0.00  0.00    -0.287 N 
ATOM      8  C   UNL     1      51.080 -17.642 -13.811  0.00  0.00    +0.020 A 
ATOM      9  C   UNL     1      52.005 -16.710 -13.384  0.00  0.00    +0.015 A 
ATOM     10  C   UNL     1      48.579 -17.923 -13.732  0.00  0.00    +0.229 C 
ATOM     11  C   UNL     1      48.644 -19.241 -14.447  0.00  0.00    +0.015 C 
ATOM     12  O   UNL     1      47.510 -17.440 -13.374  0.00  0.00    -0.273 OA
ENDROOT
BRANCH   9  13
ATOM     13  C   UNL     1      53.493 -16.781 -13.541  0.00  0.00    +0.119 C 
BRANCH  13  14
ATOM     14  O   UNL     1      54.031 -15.518 -13.966  0.00  0.00    -0.460 OA
BRANCH  14  15
ATOM     15  C   UNL     1      55.157 -15.106 -13.334  0.00  0.00    +0.304 C 
ATOM     16  C   UNL     1      56.046 -16.269 -13.009  0.00  0.00    +0.033 C 
ATOM     17  O   UNL     1      55.444 -13.947 -13.061  0.00  0.00    -0.251 OA
ENDBRANCH  14  15
ENDBRANCH  13  14
ENDBRANCH   9  13
TORSDOF 3
ENDMDL
MODEL 2
REMARK VINA RESULT:    -7.247      2.405      4.988
REMARK INTER + INTRA:          -8.728
REMARK INTER:                  -8.317
REMARK INTRA:                  -0.411
REMARK UNBOUND:                -0.210
REMARK  Name = 14e.sdf
REMARK  5 active torsions:
REMARK  status: ('A' for Active; 'I' for Inactive)
REMARK    1  A    between atoms: C_9  and  C_10
REMARK    2  A    between atoms: C_10  and  O_11
REMARK    3  A    between atoms: O_11  and  C_12
REMARK    4  A    between atoms: C_12  and  C_13
REMARK    5  A    between atoms: C_15  and  C_16
REMARK                            x       y       z     vdW  Elec       q    Type
REMARK                         _______ _______ _______ _____ _____    ______ ____
ROOT
ATOM      1  C   UNL     1      48.870 -15.467 -11.968  0.00  0.00    -0.061 A 
ATOM      2  C   UNL     1      49.433 -14.220 -11.746  0.00  0.00    -0.060 A 
ATOM      3  C   UNL     1      50.789 -13.992 -11.997  0.00  0.00    -0.037 A 
ATOM      4  C   UNL     1      51.587 -15.053 -12.475  0.00  0.00    +0.057 A 
ATOM      5  C   UNL     1      51.030 -16.317 -12.697  0.00  0.00    +0.007 A 
ATOM      6  C   UNL     1      49.654 -16.517 -12.448  0.00  0.00    -0.052 A 
ATOM      7  N   UNL     1      52.948 -15.106 -12.812  0.00  0.00    -0.287 N 
ATOM      8  C   UNL     1      53.212 -16.405 -13.225  0.00  0.00    +0.020 A 
ATOM      9  C   UNL     1      52.067 -17.174 -13.163  0.00  0.00    +0.015 A 
ATOM     10  C   UNL     1      53.857 -14.020 -12.742  0.00  0.00    +0.229 C 
ATOM     11  C   UNL     1      55.281 -14.257 -13.153  0.00  0.00    +0.015 C 
ATOM     12  O   UNL     1      53.477 -12.920 -12.353  0.00  0.00    -0.273 OA
ENDROOT
BRANCH   9  13
ATOM     13  C   UNL     1      51.931 -18.618 -13.534  0.00  0.00    +0.119 C 
BRANCH  13  14
ATOM     14  O   UNL     1      51.953 -19.459 -12.369  0.00  0.00    -0.460 OA
BRANCH  14  15
ATOM     15  C   UNL     1      51.081 -20.496 -12.364  0.00  0.00    +0.304 C 
ATOM     16  C   UNL     1      49.940 -20.243 -13.303  0.00  0.00    +0.033 C 
ATOM     17  O   UNL     1      51.188 -21.521 -11.703  0.00  0.00    -0.251 OA
ENDBRANCH  14  15
ENDBRANCH  13  14
ENDBRANCH   9  13
TORSDOF 3
ENDMDL
MODEL 3
REMARK VINA RESULT:    -7.175      2.466      4.937
REMARK INTER + INTRA:          -8.642
REMARK INTER:                  -8.360
REMARK INTRA:                  -0.283
REMARK UNBOUND:                -0.210
REMARK  Name = 14e.sdf
REMARK  5 active torsions:
REMARK  status: ('A' for Active; 'I' for Inactive)
REMARK    1  A    between atoms: C_9  and  C_10
REMARK    2  A    between atoms: C_10  and  O_11
REMARK    3  A    between atoms: O_11  and  C_12
REMARK    4  A    between atoms: C_12  and  C_13
REMARK    5  A    between atoms: C_15  and  C_16
REMARK                            x       y       z     vdW  Elec       q    Type
REMARK                         _______ _______ _______ _____ _____    ______ ____
ROOT
ATOM      1  C   UNL     1      55.738 -15.329 -13.088  0.00  0.00    -0.061 A 
ATOM      2  C   UNL     1      56.210 -16.593 -12.768  0.00  0.00    -0.060 A 
ATOM      3  C   UNL     1      55.361 -17.703 -12.799  0.00  0.00    -0.037 A 
ATOM      4  C   UNL     1      54.008 -17.522 -13.155  0.00  0.00    +0.057 A 
ATOM      5  C   UNL     1      53.520 -16.250 -13.473  0.00  0.00    +0.007 A 
ATOM      6  C   UNL     1      54.402 -15.147 -13.447  0.00  0.00    -0.052 A 
ATOM      7  N   UNL     1      52.953 -18.441 -13.272  0.00  0.00    -0.287 N 
ATOM      8  C   UNL     1      51.828 -17.719 -13.650  0.00  0.00    +0.020 A 
ATOM      9  C   UNL     1      52.134 -16.378 -13.776  0.00  0.00    +0.015 A 
ATOM     10  C   UNL     1      53.048 -19.837 -13.049  0.00  0.00    +0.229 C 
ATOM     11  C   UNL     1      51.814 -20.672 -13.233  0.00  0.00    +0.015 C 
ATOM     12  O   UNL     1      54.118 -20.339 -12.716  0.00  0.00    -0.273 OA
ENDROOT
BRANCH   9  13
ATOM     13  C   UNL     1      51.204 -15.276 -14.178  0.00  0.00    +0.119 C 
BRANCH  13  14
ATOM     14  O   UNL     1      49.876 -15.510 -13.679  0.00  0.00    -0.460 OA
BRANCH  14  15
ATOM     15  C   UNL     1      49.653 -15.162 -12.388  0.00  0.00    +0.304 C 
ATOM     16  C   UNL     1      50.408 -13.918 -12.029  0.00  0.00    +0.033 C 
ATOM     17  O   UNL     1      48.929 -15.757 -11.600  0.00  0.00    -0.251 OA
ENDBRANCH  14  15
ENDBRANCH  13  14
ENDBRANCH   9  13
TORSDOF 3
ENDMDL
