MODEL 1
REMARK VINA RESULT:    -7.197      0.000      0.000
REMARK INTER + INTRA:          -8.219
REMARK INTER:                  -8.039
REMARK INTRA:                  -0.180
REMARK UNBOUND:                -0.180
REMARK  Name = 17.sdf
REMARK  2 active torsions:
REMARK  status: ('A' for Active; 'I' for Inactive)
REMARK    1  A    between atoms: C_9  and  C_10
REMARK    2  A    between atoms: N_11  and  N_12
REMARK                            x       y       z     vdW  Elec       q    Type
REMARK                         _______ _______ _______ _____ _____    ______ ____
ROOT
ATOM      1  C   UNL     1      50.903 -13.631 -11.722  0.00  0.00    -0.061 A 
ATOM      2  C   UNL     1      51.974 -13.746 -12.606  0.00  0.00    -0.060 A 
ATOM      3  C   UNL     1      51.921 -14.625 -13.690  0.00  0.00    -0.038 A 
ATOM      4  C   UNL     1      50.759 -15.388 -13.849  0.00  0.00    +0.047 A 
ATOM      5  C   UNL     1      49.669 -15.299 -12.980  0.00  0.00    +0.008 A 
ATOM      6  C   UNL     1      49.746 -14.397 -11.899  0.00  0.00    -0.052 A 
ATOM      7  N   UNL     1      50.444 -16.322 -14.806  0.00  0.00    -0.360 N 
ATOM      8  C   UNL     1      49.201 -16.833 -14.570  0.00  0.00    +0.011 A 
ATOM      9  C   UNL     1      48.679 -16.220 -13.444  0.00  0.00    +0.020 A 
ATOM     10  H   UNL     1      51.030 -16.584 -15.554  0.00  0.00    +0.000 HD
ENDROOT
BRANCH   9  11
ATOM     11  C   UNL     1      47.376 -16.497 -12.877  0.00  0.00    +0.055 C 
ATOM     12  N   UNL     1      46.739 -17.523 -13.336  0.00  0.00    -0.186 NA
BRANCH  12  13
ATOM     13  N   UNL     1      45.512 -17.785 -12.805  0.00  0.00    -0.191 N 
ATOM     14  C   UNL     1      44.861 -18.957 -13.109  0.00  0.00    +0.317 C 
ATOM     15  O   UNL     1      43.762 -19.255 -12.659  0.00  0.00    -0.251 OA
ATOM     16  N   UNL     1      45.543 -19.762 -13.962  0.00  0.00    -0.312 N 
ATOM     17  H   UNL     1      45.091 -17.131 -12.201  0.00  0.00    +0.000 HD
ATOM     18  H   UNL     1      46.425 -19.485 -14.302  0.00  0.00    +0.000 HD
ATOM     19  H   UNL     1      45.157 -20.623 -14.241  0.00  0.00    +0.000 HD
ENDBRANCH  12  13
ENDBRANCH   9  11
TORSDOF 2
ENDMDL
MODEL 2
REMARK VINA RESULT:    -6.942      4.077      5.835
REMARK INTER + INTRA:          -7.934
REMARK INTER:                  -7.720
REMARK INTRA:                  -0.213
REMARK UNBOUND:                -0.180
REMARK  Name = 17.sdf
REMARK  2 active torsions:
REMARK  status: ('A' for Active; 'I' for Inactive)
REMARK    1  A    between atoms: C_9  and  C_10
REMARK    2  A    between atoms: N_11  and  N_12
REMARK                            x       y       z     vdW  Elec       q    Type
REMARK                         _______ _______ _______ _____ _____    ______ ____
ROOT
ATOM      1  C   UNL     1      54.847 -18.559 -13.230  0.00  0.00    -0.061 A 
ATOM      2  C   UNL     1      56.216 -18.333 -13.104  0.00  0.00    -0.060 A 
ATOM      3  C   UNL     1      56.722 -17.037 -12.974  0.00  0.00    -0.038 A 
ATOM      4  C   UNL     1      55.805 -15.980 -12.984  0.00  0.00    +0.047 A 
ATOM      5  C   UNL     1      54.427 -16.172 -13.111  0.00  0.00    +0.008 A 
ATOM      6  C   UNL     1      53.944 -17.491 -13.232  0.00  0.00    -0.052 A 
ATOM      7  N   UNL     1      56.022 -14.627 -12.883  0.00  0.00    -0.360 N 
ATOM      8  C   UNL     1      54.835 -13.957 -12.951  0.00  0.00    +0.011 A 
ATOM      9  C   UNL     1      53.814 -14.881 -13.090  0.00  0.00    +0.020 A 
ATOM     10  H   UNL     1      56.905 -14.202 -12.777  0.00  0.00    +0.000 HD
ENDROOT
BRANCH   9  11
ATOM     11  C   UNL     1      52.408 -14.555 -13.194  0.00  0.00    +0.055 C 
ATOM     12  N   UNL     1      51.711 -14.597 -12.108  0.00  0.00    -0.186 NA
BRANCH  12  13
ATOM     13  N   UNL     1      50.386 -14.291 -12.204  0.00  0.00    -0.191 N 
ATOM     14  C   UNL     1      49.434 -15.219 -11.856  0.00  0.00    +0.317 C 
ATOM     15  O   UNL     1      48.229 -15.004 -11.912  0.00  0.00    -0.251 OA
ATOM     16  N   UNL     1      49.944 -16.407 -11.444  0.00  0.00    -0.312 N 
ATOM     17  H   UNL     1      50.111 -13.402 -12.525  0.00  0.00    +0.000 HD
ATOM     18  H   UNL     1      50.919 -16.540 -11.413  0.00  0.00    +0.000 HD
ATOM     19  H   UNL     1      49.340 -17.136 -11.175  0.00  0.00    +0.000 HD
ENDBRANCH  12  13
ENDBRANCH   9  11
TORSDOF 2
ENDMDL
MODEL 3
REMARK VINA RESULT:    -6.869      6.376      8.165
REMARK INTER + INTRA:          -7.851
REMARK INTER:                  -7.632
REMARK INTRA:                  -0.220
REMARK UNBOUND:                -0.180
REMARK  Name = 17.sdf
REMARK  2 active torsions:
REMARK  status: ('A' for Active; 'I' for Inactive)
REMARK    1  A    between atoms: C_9  and  C_10
REMARK    2  A    between atoms: N_11  and  N_12
REMARK                            x       y       z     vdW  Elec       q    Type
REMARK                         _______ _______ _______ _____ _____    ______ ____
ROOT
ATOM      1  C   UNL     1      50.991 -15.989 -12.187  0.00  0.00    -0.061 A 
ATOM      2  C   UNL     1      50.566 -14.669 -12.311  0.00  0.00    -0.060 A 
ATOM      3  C   UNL     1      51.471 -13.646 -12.606  0.00  0.00    -0.038 A 
ATOM      4  C   UNL     1      52.816 -13.997 -12.765  0.00  0.00    +0.047 A 
ATOM      5  C   UNL     1      53.275 -15.311 -12.645  0.00  0.00    +0.008 A 
ATOM      6  C   UNL     1      52.339 -16.325 -12.355  0.00  0.00    -0.052 A 
ATOM      7  N   UNL     1      53.904 -13.207 -13.047  0.00  0.00    -0.360 N 
ATOM      8  C   UNL     1      55.034 -13.970 -13.101  0.00  0.00    +0.011 A 
ATOM      9  C   UNL     1      54.689 -15.289 -12.860  0.00  0.00    +0.020 A 
ATOM     10  H   UNL     1      53.873 -12.233 -13.190  0.00  0.00    +0.000 HD
ENDROOT
BRANCH   9  11
ATOM     11  C   UNL     1      55.617 -16.399 -12.836  0.00  0.00    +0.055 C 
ATOM     12  N   UNL     1      55.844 -16.952 -11.691  0.00  0.00    -0.186 NA
BRANCH  12  13
ATOM     13  N   UNL     1      56.718 -17.997 -11.665  0.00  0.00    -0.191 N 
ATOM     14  C   UNL     1      57.759 -18.007 -10.766  0.00  0.00    +0.317 C 
ATOM     15  O   UNL     1      58.573 -18.919 -10.687  0.00  0.00    -0.251 OA
ATOM     16  N   UNL     1      57.812 -16.911  -9.969  0.00  0.00    -0.312 N 
ATOM     17  H   UNL     1      56.604 -18.747 -12.292  0.00  0.00    +0.000 HD
ATOM     18  H   UNL     1      57.138 -16.200 -10.065  0.00  0.00    +0.000 HD
ATOM     19  H   UNL     1      58.523 -16.826  -9.295  0.00  0.00    +0.000 HD
ENDBRANCH  12  13
ENDBRANCH   9  11
TORSDOF 2
ENDMDL
