MODEL 1
REMARK VINA RESULT:    -9.473      0.000      0.000
REMARK INTER + INTRA:         -11.491
REMARK INTER:                 -11.134
REMARK INTRA:                  -0.356
REMARK UNBOUND:                -0.356
REMARK  Name = 17d.sdf
REMARK  3 active torsions:
REMARK  status: ('A' for Active; 'I' for Inactive)
REMARK    1  A    between atoms: C_9  and  C_10
REMARK    2  A    between atoms: N_11  and  N_12
REMARK    3  A    between atoms: C_16  and  C_17
REMARK                            x       y       z     vdW  Elec       q    Type
REMARK                         _______ _______ _______ _____ _____    ______ ____
ROOT
ATOM      1  C   UNL     1      56.432 -17.048 -12.973  0.00  0.00    -0.061 A 
ATOM      2  C   UNL     1      56.006 -15.758 -13.262  0.00  0.00    -0.060 A 
ATOM      3  C   UNL     1      54.651 -15.473 -13.445  0.00  0.00    -0.037 A 
ATOM      4  C   UNL     1      53.721 -16.524 -13.333  0.00  0.00    +0.057 A 
ATOM      5  C   UNL     1      54.130 -17.833 -13.036  0.00  0.00    +0.009 A 
ATOM      6  C   UNL     1      55.507 -18.090 -12.859  0.00  0.00    -0.052 A 
ATOM      7  N   UNL     1      52.328 -16.517 -13.413  0.00  0.00    -0.282 N 
ATOM      8  C   UNL     1      51.893 -17.816 -13.235  0.00  0.00    +0.023 A 
ATOM      9  C   UNL     1      52.962 -18.646 -12.976  0.00  0.00    +0.020 A 
ATOM     10  C   UNL     1      51.479 -15.403 -13.623  0.00  0.00    +0.263 C 
ATOM     11  O   UNL     1      51.943 -14.411 -14.179  0.00  0.00    -0.267 OA
ENDROOT
BRANCH  10  12
ATOM     12  C   UNL     1      50.054 -15.385 -13.198  0.00  0.00    +0.040 A 
ATOM     13  C   UNL     1      49.654 -14.604 -12.105  0.00  0.00    -0.049 A 
ATOM     14  C   UNL     1      48.328 -14.624 -11.679  0.00  0.00    -0.061 A 
ATOM     15  C   UNL     1      47.393 -15.398 -12.365  0.00  0.00    -0.062 A 
ATOM     16  C   UNL     1      47.778 -16.139 -13.483  0.00  0.00    -0.061 A 
ATOM     17  C   UNL     1      49.108 -16.130 -13.908  0.00  0.00    -0.049 A 
ENDBRANCH  10  12
BRANCH   9  18
ATOM     18  C   UNL     1      52.850 -20.065 -12.709  0.00  0.00    +0.055 C 
ATOM     19  N   UNL     1      52.212 -20.427 -11.643  0.00  0.00    -0.186 NA
BRANCH  19  20
ATOM     20  N   UNL     1      52.126 -21.772 -11.421  0.00  0.00    -0.191 N 
ATOM     21  C   UNL     1      51.682 -22.269 -10.219  0.00  0.00    +0.317 C 
ATOM     22  O   UNL     1      51.536 -23.464 -10.004  0.00  0.00    -0.251 OA
ATOM     23  N   UNL     1      51.434 -21.317  -9.283  0.00  0.00    -0.312 N 
ATOM     24  H   UNL     1      52.386 -22.397 -12.136  0.00  0.00    +0.000 HD
ATOM     25  H   UNL     1      51.565 -20.366  -9.501  0.00  0.00    +0.000 HD
ATOM     26  H   UNL     1      51.122 -21.577  -8.387  0.00  0.00    +0.000 HD
ENDBRANCH  19  20
ENDBRANCH   9  18
TORSDOF 3
ENDMDL
MODEL 2
REMARK VINA RESULT:    -9.227      1.370      1.538
REMARK INTER + INTRA:         -11.202
REMARK INTER:                 -10.736
REMARK INTRA:                  -0.466
REMARK UNBOUND:                -0.356
REMARK  Name = 17d.sdf
REMARK  3 active torsions:
REMARK  status: ('A' for Active; 'I' for Inactive)
REMARK    1  A    between atoms: C_9  and  C_10
REMARK    2  A    between atoms: N_11  and  N_12
REMARK    3  A    between atoms: C_16  and  C_17
REMARK                            x       y       z     vdW  Elec       q    Type
REMARK                         _______ _______ _______ _____ _____    ______ ____
ROOT
ATOM      1  C   UNL     1      57.091 -17.779 -11.975  0.00  0.00    -0.061 A 
ATOM      2  C   UNL     1      56.780 -16.758 -12.864  0.00  0.00    -0.060 A 
ATOM      3  C   UNL     1      55.453 -16.396 -13.106  0.00  0.00    -0.037 A 
ATOM      4  C   UNL     1      54.432 -17.090 -12.431  0.00  0.00    +0.057 A 
ATOM      5  C   UNL     1      54.724 -18.120 -11.523  0.00  0.00    +0.009 A 
ATOM      6  C   UNL     1      56.076 -18.465 -11.301  0.00  0.00    -0.052 A 
ATOM      7  N   UNL     1      53.049 -16.907 -12.440  0.00  0.00    -0.282 N 
ATOM      8  C   UNL     1      52.496 -17.856 -11.603  0.00  0.00    +0.023 A 
ATOM      9  C   UNL     1      53.489 -18.600 -11.003  0.00  0.00    +0.020 A 
ATOM     10  C   UNL     1      52.310 -15.932 -13.153  0.00  0.00    +0.263 C 
ATOM     11  O   UNL     1      52.813 -15.438 -14.159  0.00  0.00    -0.267 OA
ENDROOT
BRANCH  10  12
ATOM     12  C   UNL     1      50.956 -15.482 -12.734  0.00  0.00    +0.040 A 
ATOM     13  C   UNL     1      50.807 -14.330 -11.949  0.00  0.00    -0.049 A 
ATOM     14  C   UNL     1      49.543 -13.935 -11.519  0.00  0.00    -0.061 A 
ATOM     15  C   UNL     1      48.422 -14.672 -11.899  0.00  0.00    -0.062 A 
ATOM     16  C   UNL     1      48.562 -15.791 -12.721  0.00  0.00    -0.061 A 
ATOM     17  C   UNL     1      49.828 -16.197 -13.147  0.00  0.00    -0.049 A 
ENDBRANCH  10  12
BRANCH   9  18
ATOM     18  C   UNL     1      53.252 -19.656 -10.041  0.00  0.00    +0.055 C 
ATOM     19  N   UNL     1      52.220 -20.414 -10.223  0.00  0.00    -0.186 NA
BRANCH  19  20
ATOM     20  N   UNL     1      52.026 -21.400  -9.298  0.00  0.00    -0.191 N 
ATOM     21  C   UNL     1      50.964 -22.269  -9.395  0.00  0.00    +0.317 C 
ATOM     22  O   UNL     1      50.791 -23.198  -8.619  0.00  0.00    -0.251 OA
ATOM     23  N   UNL     1      50.114 -21.995 -10.417  0.00  0.00    -0.312 N 
ATOM     24  H   UNL     1      52.657 -21.490  -8.548  0.00  0.00    +0.000 HD
ATOM     25  H   UNL     1      50.294 -21.235 -11.018  0.00  0.00    +0.000 HD
ATOM     26  H   UNL     1      49.319 -22.556 -10.560  0.00  0.00    +0.000 HD
ENDBRANCH  19  20
ENDBRANCH   9  18
TORSDOF 3
ENDMDL
MODEL 3
REMARK VINA RESULT:    -8.989      1.769      5.313
REMARK INTER + INTRA:         -10.922
REMARK INTER:                 -10.383
REMARK INTRA:                  -0.538
REMARK UNBOUND:                -0.356
REMARK  Name = 17d.sdf
REMARK  3 active torsions:
REMARK  status: ('A' for Active; 'I' for Inactive)
REMARK    1  A    between atoms: C_9  and  C_10
REMARK    2  A    between atoms: N_11  and  N_12
REMARK    3  A    between atoms: C_16  and  C_17
REMARK                            x       y       z     vdW  Elec       q    Type
REMARK                         _______ _______ _______ _____ _____    ______ ____
ROOT
ATOM      1  C   UNL     1      49.694 -16.539 -14.826  0.00  0.00    -0.061 A 
ATOM      2  C   UNL     1      50.571 -15.462 -14.846  0.00  0.00    -0.060 A 
ATOM      3  C   UNL     1      51.803 -15.527 -14.191  0.00  0.00    -0.037 A 
ATOM      4  C   UNL     1      52.140 -16.709 -13.506  0.00  0.00    +0.057 A 
ATOM      5  C   UNL     1      51.272 -17.812 -13.480  0.00  0.00    +0.009 A 
ATOM      6  C   UNL     1      50.032 -17.715 -14.149  0.00  0.00    -0.052 A 
ATOM      7  N   UNL     1      53.304 -17.063 -12.823  0.00  0.00    -0.282 N 
ATOM      8  C   UNL     1      53.125 -18.340 -12.327  0.00  0.00    +0.023 A 
ATOM      9  C   UNL     1      51.906 -18.842 -12.728  0.00  0.00    +0.020 A 
ATOM     10  C   UNL     1      54.480 -16.291 -12.658  0.00  0.00    +0.263 C 
ATOM     11  O   UNL     1      54.393 -15.070 -12.749  0.00  0.00    -0.267 OA
ENDROOT
BRANCH  10  12
ATOM     12  C   UNL     1      55.809 -16.897 -12.382  0.00  0.00    +0.040 A 
ATOM     13  C   UNL     1      56.631 -17.307 -13.441  0.00  0.00    -0.049 A 
ATOM     14  C   UNL     1      57.856 -17.916 -13.181  0.00  0.00    -0.061 A 
ATOM     15  C   UNL     1      58.277 -18.087 -11.862  0.00  0.00    -0.062 A 
ATOM     16  C   UNL     1      57.483 -17.636 -10.807  0.00  0.00    -0.061 A 
ATOM     17  C   UNL     1      56.249 -17.034 -11.063  0.00  0.00    -0.049 A 
ENDBRANCH  10  12
BRANCH   9  18
ATOM     18  C   UNL     1      51.422 -20.168 -12.408  0.00  0.00    +0.055 C 
ATOM     19  N   UNL     1      51.924 -20.757 -11.371  0.00  0.00    -0.186 NA
BRANCH  19  20
ATOM     20  N   UNL     1      51.445 -22.007 -11.097  0.00  0.00    -0.191 N 
ATOM     21  C   UNL     1      51.043 -22.354  -9.830  0.00  0.00    +0.317 C 
ATOM     22  O   UNL     1      50.556 -23.443  -9.559  0.00  0.00    -0.251 OA
ATOM     23  N   UNL     1      51.249 -21.388  -8.898  0.00  0.00    -0.312 N 
ATOM     24  H   UNL     1      51.387 -22.671 -11.822  0.00  0.00    +0.000 HD
ATOM     25  H   UNL     1      51.644 -20.525  -9.162  0.00  0.00    +0.000 HD
ATOM     26  H   UNL     1      51.001 -21.549  -7.960  0.00  0.00    +0.000 HD
ENDBRANCH  19  20
ENDBRANCH   9  18
TORSDOF 3
ENDMDL
