MODEL 1
REMARK VINA RESULT:    -9.251      0.000      0.000
REMARK INTER + INTRA:         -12.554
REMARK INTER:                 -11.956
REMARK INTRA:                  -0.599
REMARK UNBOUND:                -0.599
REMARK  Name = 17f.sdf
REMARK  5 active torsions:
REMARK  status: ('A' for Active; 'I' for Inactive)
REMARK    1  A    between atoms: N_7  and  C_11
REMARK    2  A    between atoms: C_9  and  C_10
REMARK    3  A    between atoms: C_11  and  C_12
REMARK    4  A    between atoms: C_12  and  C_13
REMARK    5  A    between atoms: N_21  and  N_22
REMARK                            x       y       z     vdW  Elec       q    Type
REMARK                         _______ _______ _______ _____ _____    ______ ____
ROOT
ATOM      1  C   UNL     1      48.742 -14.518 -11.888  0.00  0.00    -0.061 A 
ATOM      2  C   UNL     1      50.007 -13.987 -11.660  0.00  0.00    -0.060 A 
ATOM      3  C   UNL     1      51.163 -14.732 -11.923  0.00  0.00    -0.038 A 
ATOM      4  C   UNL     1      51.009 -16.022 -12.454  0.00  0.00    +0.050 A 
ATOM      5  C   UNL     1      49.753 -16.520 -12.814  0.00  0.00    +0.009 A 
ATOM      6  C   UNL     1      48.601 -15.775 -12.478  0.00  0.00    -0.052 A 
ATOM      7  N   UNL     1      51.921 -17.027 -12.717  0.00  0.00    -0.338 N 
ATOM      8  C   UNL     1      51.313 -18.025 -13.439  0.00  0.00    +0.015 A 
ATOM      9  C   UNL     1      49.970 -17.724 -13.552  0.00  0.00    +0.020 A 
ENDROOT
BRANCH   9  10
ATOM     10  C   UNL     1      48.976 -18.442 -14.320  0.00  0.00    +0.055 C 
ATOM     11  N   UNL     1      48.769 -19.700 -14.084  0.00  0.00    -0.186 NA
BRANCH  11  12
ATOM     12  N   UNL     1      47.899 -20.299 -14.959  0.00  0.00    -0.191 N 
ATOM     13  C   UNL     1      46.676 -20.760 -14.542  0.00  0.00    +0.317 C 
ATOM     14  O   UNL     1      45.925 -21.409 -15.257  0.00  0.00    -0.251 OA
ATOM     15  N   UNL     1      46.367 -20.424 -13.265  0.00  0.00    -0.312 N 
ATOM     16  H   UNL     1      48.157 -20.401 -15.903  0.00  0.00    +0.000 HD
ATOM     17  H   UNL     1      47.004 -19.900 -12.727  0.00  0.00    +0.000 HD
ATOM     18  H   UNL     1      45.506 -20.703 -12.878  0.00  0.00    +0.000 HD
ENDBRANCH  11  12
ENDBRANCH   9  10
BRANCH   7  19
ATOM     19  C   UNL     1      53.252 -17.150 -12.120  0.00  0.00    +0.086 C 
BRANCH  19  20
ATOM     20  C   UNL     1      54.392 -16.720 -13.014  0.00  0.00    +0.183 C 
ATOM     21  O   UNL     1      54.331 -15.757 -13.770  0.00  0.00    -0.290 OA
BRANCH  20  22
ATOM     22  C   UNL     1      55.670 -17.509 -12.952  0.00  0.00    +0.019 A 
ATOM     23  C   UNL     1      56.937 -16.916 -13.035  0.00  0.00    -0.050 A 
ATOM     24  C   UNL     1      58.089 -17.712 -13.056  0.00  0.00    -0.047 A 
ATOM     25  C   UNL     1      57.979 -19.101 -12.988  0.00  0.00    +0.018 A 
ATOM     26  C   UNL     1      56.730 -19.701 -12.858  0.00  0.00    -0.047 A 
ATOM     27  C   UNL     1      55.579 -18.905 -12.835  0.00  0.00    -0.050 A 
ATOM     28 BR   UNL     1      59.530 -20.174 -13.102  0.00  0.00    -0.050 Br
ENDBRANCH  20  22
ENDBRANCH  19  20
ENDBRANCH   7  19
TORSDOF 5
ENDMDL
MODEL 2
REMARK VINA RESULT:    -9.089      1.805      2.172
REMARK INTER + INTRA:         -12.345
REMARK INTER:                 -11.554
REMARK INTRA:                  -0.791
REMARK UNBOUND:                -0.599
REMARK  Name = 17f.sdf
REMARK  5 active torsions:
REMARK  status: ('A' for Active; 'I' for Inactive)
REMARK    1  A    between atoms: N_7  and  C_11
REMARK    2  A    between atoms: C_9  and  C_10
REMARK    3  A    between atoms: C_11  and  C_12
REMARK    4  A    between atoms: C_12  and  C_13
REMARK    5  A    between atoms: N_21  and  N_22
REMARK                            x       y       z     vdW  Elec       q    Type
REMARK                         _______ _______ _______ _____ _____    ______ ____
ROOT
ATOM      1  C   UNL     1      50.710 -13.681 -11.958  0.00  0.00    -0.061 A 
ATOM      2  C   UNL     1      51.928 -13.934 -12.579  0.00  0.00    -0.060 A 
ATOM      3  C   UNL     1      52.175 -15.154 -13.219  0.00  0.00    -0.038 A 
ATOM      4  C   UNL     1      51.144 -16.106 -13.244  0.00  0.00    +0.050 A 
ATOM      5  C   UNL     1      49.870 -15.817 -12.743  0.00  0.00    +0.009 A 
ATOM      6  C   UNL     1      49.668 -14.606 -12.046  0.00  0.00    -0.052 A 
ATOM      7  N   UNL     1      51.105 -17.414 -13.689  0.00  0.00    -0.338 N 
ATOM      8  C   UNL     1      49.806 -17.859 -13.701  0.00  0.00    +0.015 A 
ATOM      9  C   UNL     1      49.004 -16.876 -13.154  0.00  0.00    +0.020 A 
ENDROOT
BRANCH   9  10
ATOM     10  C   UNL     1      47.559 -16.876 -13.068  0.00  0.00    +0.055 C 
ATOM     11  N   UNL     1      46.903 -17.969 -13.302  0.00  0.00    -0.186 NA
BRANCH  11  12
ATOM     12  N   UNL     1      45.540 -17.814 -13.315  0.00  0.00    -0.191 N 
ATOM     13  C   UNL     1      44.700 -18.885 -13.143  0.00  0.00    +0.317 C 
ATOM     14  O   UNL     1      43.486 -18.811 -13.272  0.00  0.00    -0.251 OA
ATOM     15  N   UNL     1      45.336 -20.034 -12.807  0.00  0.00    -0.312 N 
ATOM     16  H   UNL     1      45.158 -16.917 -13.452  0.00  0.00    +0.000 HD
ATOM     17  H   UNL     1      46.316 -20.045 -12.715  0.00  0.00    +0.000 HD
ATOM     18  H   UNL     1      44.817 -20.857 -12.655  0.00  0.00    +0.000 HD
ENDBRANCH  11  12
ENDBRANCH   9  10
BRANCH   7  19
ATOM     19  C   UNL     1      52.265 -18.285 -13.882  0.00  0.00    +0.086 C 
BRANCH  19  20
ATOM     20  C   UNL     1      53.071 -18.556 -12.632  0.00  0.00    +0.183 C 
ATOM     21  O   UNL     1      52.570 -18.883 -11.563  0.00  0.00    -0.290 OA
BRANCH  20  22
ATOM     22  C   UNL     1      54.567 -18.433 -12.721  0.00  0.00    +0.019 A 
ATOM     23  C   UNL     1      55.216 -17.225 -13.008  0.00  0.00    -0.050 A 
ATOM     24  C   UNL     1      56.608 -17.190 -13.160  0.00  0.00    -0.047 A 
ATOM     25  C   UNL     1      57.354 -18.360 -13.021  0.00  0.00    +0.018 A 
ATOM     26  C   UNL     1      56.728 -19.558 -12.690  0.00  0.00    -0.047 A 
ATOM     27  C   UNL     1      55.337 -19.592 -12.536  0.00  0.00    -0.050 A 
ATOM     28 BR   UNL     1      59.221 -18.326 -13.311  0.00  0.00    -0.050 Br
ENDBRANCH  20  22
ENDBRANCH  19  20
ENDBRANCH   7  19
TORSDOF 5
ENDMDL
MODEL 3
REMARK VINA RESULT:    -9.023      4.216      6.904
REMARK INTER + INTRA:         -12.259
REMARK INTER:                 -11.490
REMARK INTRA:                  -0.769
REMARK UNBOUND:                -0.599
REMARK  Name = 17f.sdf
REMARK  5 active torsions:
REMARK  status: ('A' for Active; 'I' for Inactive)
REMARK    1  A    between atoms: N_7  and  C_11
REMARK    2  A    between atoms: C_9  and  C_10
REMARK    3  A    between atoms: C_11  and  C_12
REMARK    4  A    between atoms: C_12  and  C_13
REMARK    5  A    between atoms: N_21  and  N_22
REMARK                            x       y       z     vdW  Elec       q    Type
REMARK                         _______ _______ _______ _____ _____    ______ ____
ROOT
ATOM      1  C   UNL     1      57.582 -18.779 -12.585  0.00  0.00    -0.061 A 
ATOM      2  C   UNL     1      57.577 -17.392 -12.695  0.00  0.00    -0.060 A 
ATOM      3  C   UNL     1      56.395 -16.691 -12.961  0.00  0.00    -0.038 A 
ATOM      4  C   UNL     1      55.206 -17.426 -13.082  0.00  0.00    +0.050 A 
ATOM      5  C   UNL     1      55.170 -18.804 -12.842  0.00  0.00    +0.009 A 
ATOM      6  C   UNL     1      56.385 -19.494 -12.641  0.00  0.00    -0.052 A 
ATOM      7  N   UNL     1      53.923 -17.056 -13.439  0.00  0.00    -0.338 N 
ATOM      8  C   UNL     1      53.058 -18.095 -13.199  0.00  0.00    +0.015 A 
ATOM      9  C   UNL     1      53.796 -19.189 -12.790  0.00  0.00    +0.020 A 
ENDROOT
BRANCH   9  10
ATOM     10  C   UNL     1      53.285 -20.463 -12.330  0.00  0.00    +0.055 C 
ATOM     11  N   UNL     1      53.226 -20.708 -11.058  0.00  0.00    -0.186 NA
BRANCH  11  12
ATOM     12  N   UNL     1      52.845 -21.990 -10.752  0.00  0.00    -0.191 N 
ATOM     13  C   UNL     1      52.005 -22.250  -9.699  0.00  0.00    +0.317 C 
ATOM     14  O   UNL     1      51.743 -23.383  -9.315  0.00  0.00    -0.251 OA
ATOM     15  N   UNL     1      51.483 -21.140  -9.124  0.00  0.00    -0.312 N 
ATOM     16  H   UNL     1      53.183 -22.737 -11.297  0.00  0.00    +0.000 HD
ATOM     17  H   UNL     1      51.724 -20.249  -9.467  0.00  0.00    +0.000 HD
ATOM     18  H   UNL     1      50.863 -21.224  -8.364  0.00  0.00    +0.000 HD
ENDBRANCH  11  12
ENDBRANCH   9  10
BRANCH   7  19
ATOM     19  C   UNL     1      53.559 -15.851 -14.187  0.00  0.00    +0.086 C 
BRANCH  19  20
ATOM     20  C   UNL     1      53.002 -14.725 -13.346  0.00  0.00    +0.183 C 
ATOM     21  O   UNL     1      53.682 -13.798 -12.921  0.00  0.00    -0.290 OA
BRANCH  20  22
ATOM     22  C   UNL     1      51.531 -14.743 -13.034  0.00  0.00    +0.019 A 
ATOM     23  C   UNL     1      50.968 -14.018 -11.975  0.00  0.00    -0.050 A 
ATOM     24  C   UNL     1      49.604 -14.141 -11.682  0.00  0.00    -0.047 A 
ATOM     25  C   UNL     1      48.799 -14.982 -12.450  0.00  0.00    +0.018 A 
ATOM     26  C   UNL     1      49.335 -15.672 -13.532  0.00  0.00    -0.047 A 
ATOM     27  C   UNL     1      50.698 -15.548 -13.827  0.00  0.00    -0.050 A 
ATOM     28 BR   UNL     1      46.978 -15.210 -11.999  0.00  0.00    -0.050 Br
ENDBRANCH  20  22
ENDBRANCH  19  20
ENDBRANCH   7  19
TORSDOF 5
ENDMDL
