MODEL 1
REMARK VINA RESULT:    -8.792      0.000      0.000
REMARK INTER + INTRA:         -13.055
REMARK INTER:                 -12.390
REMARK INTRA:                  -0.665
REMARK UNBOUND:                -0.665
REMARK  Name = 17k.sdf
REMARK  10 active torsions:
REMARK  status: ('A' for Active; 'I' for Inactive)
REMARK    1  A    between atoms: N_7  and  C_16
REMARK    2  A    between atoms: C_9  and  C_10
REMARK    3  A    between atoms: N_11  and  N_12
REMARK    4  A    between atoms: C_16  and  C_17
REMARK    5  A    between atoms: C_19  and  O_23
REMARK    6  A    between atoms: C_20  and  O_27
REMARK    7  A    between atoms: C_21  and  O_25
REMARK    8  A    between atoms: O_23  and  C_24
REMARK    9  A    between atoms: O_25  and  C_26
REMARK   10  A    between atoms: O_27  and  C_28
REMARK                            x       y       z     vdW  Elec       q    Type
REMARK                         _______ _______ _______ _____ _____    ______ ____
ROOT
ATOM      1  C   UNL     1      49.261 -14.343 -11.640  0.00  0.00    -0.061 A 
ATOM      2  C   UNL     1      50.451 -13.666 -11.889  0.00  0.00    -0.060 A 
ATOM      3  C   UNL     1      51.512 -14.294 -12.548  0.00  0.00    -0.038 A 
ATOM      4  C   UNL     1      51.346 -15.631 -12.947  0.00  0.00    +0.050 A 
ATOM      5  C   UNL     1      50.142 -16.319 -12.747  0.00  0.00    +0.009 A 
ATOM      6  C   UNL     1      49.091 -15.661 -12.073  0.00  0.00    -0.052 A 
ATOM      7  N   UNL     1      52.215 -16.509 -13.566  0.00  0.00    -0.342 N 
ATOM      8  C   UNL     1      51.576 -17.697 -13.815  0.00  0.00    +0.015 A 
ATOM      9  C   UNL     1      50.283 -17.615 -13.334  0.00  0.00    +0.020 A 
ENDROOT
BRANCH   9  10
ATOM     10  C   UNL     1      49.281 -18.655 -13.426  0.00  0.00    +0.055 C 
ATOM     11  N   UNL     1      48.081 -18.337 -13.791  0.00  0.00    -0.186 NA
BRANCH  11  12
ATOM     12  N   UNL     1      47.189 -19.375 -13.836  0.00  0.00    -0.191 N 
ATOM     13  C   UNL     1      45.886 -19.215 -13.441  0.00  0.00    +0.317 C 
ATOM     14  O   UNL     1      45.076 -20.134 -13.425  0.00  0.00    -0.251 OA
ATOM     15  N   UNL     1      45.566 -17.951 -13.071  0.00  0.00    -0.312 N 
ATOM     16  H   UNL     1      47.491 -20.255 -14.158  0.00  0.00    +0.000 HD
ATOM     17  H   UNL     1      46.248 -17.242 -13.100  0.00  0.00    +0.000 HD
ATOM     18  H   UNL     1      44.650 -17.741 -12.775  0.00  0.00    +0.000 HD
ENDBRANCH  11  12
ENDBRANCH   9  10
BRANCH   7  19
ATOM     19  C   UNL     1      53.625 -16.260 -13.873  0.00  0.00    +0.049 C 
BRANCH  19  20
ATOM     20  C   UNL     1      54.606 -16.955 -12.953  0.00  0.00    -0.021 A 
ATOM     21  C   UNL     1      55.988 -16.756 -13.005  0.00  0.00    -0.011 A 
ATOM     22  C   UNL     1      56.877 -17.492 -12.200  0.00  0.00    +0.165 A 
ATOM     23  C   UNL     1      56.373 -18.428 -11.267  0.00  0.00    +0.204 A 
ATOM     24  C   UNL     1      54.974 -18.587 -11.160  0.00  0.00    +0.165 A 
ATOM     25  C   UNL     1      54.117 -17.857 -12.003  0.00  0.00    -0.011 A 
BRANCH  22  26
ATOM     26  O   UNL     1      58.236 -17.324 -12.296  0.00  0.00    -0.491 OA
ATOM     27  C   UNL     1      58.968 -18.166 -13.178  0.00  0.00    +0.079 C 
ENDBRANCH  22  26
BRANCH  24  28
ATOM     28  O   UNL     1      54.259 -19.400 -10.313  0.00  0.00    -0.491 OA
ATOM     29  C   UNL     1      52.839 -19.377 -10.348  0.00  0.00    +0.079 C 
ENDBRANCH  24  28
BRANCH  23  30
ATOM     30  O   UNL     1      57.128 -19.209 -10.432  0.00  0.00    -0.488 OA
ATOM     31  C   UNL     1      57.420 -20.558 -10.756  0.00  0.00    +0.079 C 
ENDBRANCH  23  30
ENDBRANCH  19  20
ENDBRANCH   7  19
TORSDOF 7
ENDMDL
MODEL 2
REMARK VINA RESULT:    -8.736      1.285      1.633
REMARK INTER + INTRA:         -12.975
REMARK INTER:                 -11.958
REMARK INTRA:                  -1.017
REMARK UNBOUND:                -0.665
REMARK  Name = 17k.sdf
REMARK  10 active torsions:
REMARK  status: ('A' for Active; 'I' for Inactive)
REMARK    1  A    between atoms: N_7  and  C_16
REMARK    2  A    between atoms: C_9  and  C_10
REMARK    3  A    between atoms: N_11  and  N_12
REMARK    4  A    between atoms: C_16  and  C_17
REMARK    5  A    between atoms: C_19  and  O_23
REMARK    6  A    between atoms: C_20  and  O_27
REMARK    7  A    between atoms: C_21  and  O_25
REMARK    8  A    between atoms: O_23  and  C_24
REMARK    9  A    between atoms: O_25  and  C_26
REMARK   10  A    between atoms: O_27  and  C_28
REMARK                            x       y       z     vdW  Elec       q    Type
REMARK                         _______ _______ _______ _____ _____    ______ ____
ROOT
ATOM      1  C   UNL     1      49.865 -13.987 -11.894  0.00  0.00    -0.061 A 
ATOM      2  C   UNL     1      51.245 -13.821 -11.827  0.00  0.00    -0.060 A 
ATOM      3  C   UNL     1      52.112 -14.775 -12.368  0.00  0.00    -0.038 A 
ATOM      4  C   UNL     1      51.552 -15.909 -12.978  0.00  0.00    +0.050 A 
ATOM      5  C   UNL     1      50.167 -16.077 -13.097  0.00  0.00    +0.009 A 
ATOM      6  C   UNL     1      49.315 -15.101 -12.535  0.00  0.00    -0.052 A 
ATOM      7  N   UNL     1      52.145 -17.019 -13.550  0.00  0.00    -0.342 N 
ATOM      8  C   UNL     1      51.181 -17.840 -14.077  0.00  0.00    +0.015 A 
ATOM      9  C   UNL     1      49.939 -17.285 -13.829  0.00  0.00    +0.020 A 
ENDROOT
BRANCH   9  10
ATOM     10  C   UNL     1      48.669 -17.837 -14.247  0.00  0.00    +0.055 C 
ATOM     11  N   UNL     1      47.912 -18.405 -13.364  0.00  0.00    -0.186 NA
BRANCH  11  12
ATOM     12  N   UNL     1      46.736 -18.916 -13.845  0.00  0.00    -0.191 N 
ATOM     13  C   UNL     1      45.527 -18.558 -13.306  0.00  0.00    +0.317 C 
ATOM     14  O   UNL     1      44.462 -19.033 -13.683  0.00  0.00    -0.251 OA
ATOM     15  N   UNL     1      45.608 -17.630 -12.322  0.00  0.00    -0.312 N 
ATOM     16  H   UNL     1      46.760 -19.556 -14.593  0.00  0.00    +0.000 HD
ATOM     17  H   UNL     1      46.485 -17.275 -12.051  0.00  0.00    +0.000 HD
ATOM     18  H   UNL     1      44.790 -17.310 -11.877  0.00  0.00    +0.000 HD
ENDBRANCH  11  12
ENDBRANCH   9  10
BRANCH   7  19
ATOM     19  C   UNL     1      53.575 -17.329 -13.561  0.00  0.00    +0.049 C 
BRANCH  19  20
ATOM     20  C   UNL     1      54.055 -18.147 -12.382  0.00  0.00    -0.021 A 
ATOM     21  C   UNL     1      55.385 -18.178 -11.952  0.00  0.00    -0.011 A 
ATOM     22  C   UNL     1      55.813 -19.026 -10.914  0.00  0.00    +0.165 A 
ATOM     23  C   UNL     1      54.874 -19.841 -10.238  0.00  0.00    +0.204 A 
ATOM     24  C   UNL     1      53.517 -19.767 -10.620  0.00  0.00    +0.165 A 
ATOM     25  C   UNL     1      53.131 -18.930 -11.683  0.00  0.00    -0.011 A 
BRANCH  22  26
ATOM     26  O   UNL     1      57.131 -19.085 -10.535  0.00  0.00    -0.491 OA
ATOM     27  C   UNL     1      57.830 -17.869 -10.301  0.00  0.00    +0.079 C 
ENDBRANCH  22  26
BRANCH  24  28
ATOM     28  O   UNL     1      52.434 -20.427 -10.092  0.00  0.00    -0.491 OA
ATOM     29  C   UNL     1      51.879 -21.535 -10.788  0.00  0.00    +0.079 C 
ENDBRANCH  24  28
BRANCH  23  30
ATOM     30  O   UNL     1      55.160 -20.710  -9.218  0.00  0.00    -0.488 OA
ATOM     31  C   UNL     1      55.501 -22.061  -9.482  0.00  0.00    +0.079 C 
ENDBRANCH  23  30
ENDBRANCH  19  20
ENDBRANCH   7  19
TORSDOF 7
ENDMDL
MODEL 3
REMARK VINA RESULT:    -8.670      0.448      2.411
REMARK INTER + INTRA:         -12.882
REMARK INTER:                 -12.187
REMARK INTRA:                  -0.694
REMARK UNBOUND:                -0.665
REMARK  Name = 17k.sdf
REMARK  10 active torsions:
REMARK  status: ('A' for Active; 'I' for Inactive)
REMARK    1  A    between atoms: N_7  and  C_16
REMARK    2  A    between atoms: C_9  and  C_10
REMARK    3  A    between atoms: N_11  and  N_12
REMARK    4  A    between atoms: C_16  and  C_17
REMARK    5  A    between atoms: C_19  and  O_23
REMARK    6  A    between atoms: C_20  and  O_27
REMARK    7  A    between atoms: C_21  and  O_25
REMARK    8  A    between atoms: O_23  and  C_24
REMARK    9  A    between atoms: O_25  and  C_26
REMARK   10  A    between atoms: O_27  and  C_28
REMARK                            x       y       z     vdW  Elec       q    Type
REMARK                         _______ _______ _______ _____ _____    ______ ____
ROOT
ATOM      1  C   UNL     1      49.232 -14.192 -11.571  0.00  0.00    -0.061 A 
ATOM      2  C   UNL     1      50.486 -13.590 -11.592  0.00  0.00    -0.060 A 
ATOM      3  C   UNL     1      51.554 -14.176 -12.278  0.00  0.00    -0.038 A 
ATOM      4  C   UNL     1      51.329 -15.394 -12.940  0.00  0.00    +0.050 A 
ATOM      5  C   UNL     1      50.065 -15.997 -12.970  0.00  0.00    +0.009 A 
ATOM      6  C   UNL     1      49.006 -15.385 -12.263  0.00  0.00    -0.052 A 
ATOM      7  N   UNL     1      52.185 -16.214 -13.649  0.00  0.00    -0.342 N 
ATOM      8  C   UNL     1      51.487 -17.273 -14.173  0.00  0.00    +0.015 A 
ATOM      9  C   UNL     1      50.164 -17.168 -13.785  0.00  0.00    +0.020 A 
ENDROOT
BRANCH   9  10
ATOM     10  C   UNL     1      49.102 -18.078 -14.154  0.00  0.00    +0.055 C 
ATOM     11  N   UNL     1      48.026 -18.108 -13.436  0.00  0.00    -0.186 NA
BRANCH  11  12
ATOM     12  N   UNL     1      47.077 -19.009 -13.841  0.00  0.00    -0.191 N 
ATOM     13  C   UNL     1      45.772 -18.906 -13.433  0.00  0.00    +0.317 C 
ATOM     14  O   UNL     1      44.910 -19.721 -13.740  0.00  0.00    -0.251 OA
ATOM     15  N   UNL     1      45.514 -17.823 -12.660  0.00  0.00    -0.312 N 
ATOM     16  H   UNL     1      47.338 -19.746 -14.439  0.00  0.00    +0.000 HD
ATOM     17  H   UNL     1      46.237 -17.193 -12.438  0.00  0.00    +0.000 HD
ATOM     18  H   UNL     1      44.602 -17.665 -12.322  0.00  0.00    +0.000 HD
ENDBRANCH  11  12
ENDBRANCH   9  10
BRANCH   7  19
ATOM     19  C   UNL     1      53.631 -16.040 -13.793  0.00  0.00    +0.049 C 
BRANCH  19  20
ATOM     20  C   UNL     1      54.469 -16.936 -12.907  0.00  0.00    -0.021 A 
ATOM     21  C   UNL     1      53.928 -17.865 -12.015  0.00  0.00    -0.011 A 
ATOM     22  C   UNL     1      54.734 -18.611 -11.136  0.00  0.00    +0.165 A 
ATOM     23  C   UNL     1      56.142 -18.468 -11.177  0.00  0.00    +0.204 A 
ATOM     24  C   UNL     1      56.702 -17.581 -12.122  0.00  0.00    +0.165 A 
ATOM     25  C   UNL     1      55.863 -16.829 -12.963  0.00  0.00    -0.011 A 
BRANCH  22  26
ATOM     26  O   UNL     1      54.188 -19.484 -10.229  0.00  0.00    -0.491 OA
ATOM     27  C   UNL     1      53.433 -20.589 -10.712  0.00  0.00    +0.079 C 
ENDBRANCH  22  26
BRANCH  24  28
ATOM     28  O   UNL     1      58.025 -17.305 -12.369  0.00  0.00    -0.491 OA
ATOM     29  C   UNL     1      58.746 -18.099 -13.301  0.00  0.00    +0.079 C 
ENDBRANCH  24  28
BRANCH  23  30
ATOM     30  O   UNL     1      57.035 -19.129 -10.376  0.00  0.00    -0.488 OA
ATOM     31  C   UNL     1      57.483 -20.434 -10.702  0.00  0.00    +0.079 C 
ENDBRANCH  23  30
ENDBRANCH  19  20
ENDBRANCH   7  19
TORSDOF 7
ENDMDL
