MODEL 1
REMARK VINA RESULT:   -10.175      0.000      0.000
REMARK INTER + INTRA:         -14.077
REMARK INTER:                 -13.150
REMARK INTRA:                  -0.927
REMARK UNBOUND:                -0.927
REMARK  Name = 18c.sdf
REMARK  5 active torsions:
REMARK  status: ('A' for Active; 'I' for Inactive)
REMARK    1  A    between atoms: N_7  and  C_12
REMARK    2  A    between atoms: C_9  and  C_10
REMARK    3  A    between atoms: N_11  and  N_19
REMARK    4  A    between atoms: C_12  and  C_13
REMARK    5  A    between atoms: C_20  and  C_22
REMARK                            x       y       z     vdW  Elec       q    Type
REMARK                         _______ _______ _______ _____ _____    ______ ____
ROOT
ATOM      1  C   UNL     1      56.287 -16.599 -12.950  0.00  0.00    -0.061 A 
ATOM      2  C   UNL     1      55.644 -15.427 -13.329  0.00  0.00    -0.060 A 
ATOM      3  C   UNL     1      54.267 -15.407 -13.572  0.00  0.00    -0.038 A 
ATOM      4  C   UNL     1      53.543 -16.602 -13.418  0.00  0.00    +0.050 A 
ATOM      5  C   UNL     1      54.162 -17.783 -12.987  0.00  0.00    +0.009 A 
ATOM      6  C   UNL     1      55.557 -17.777 -12.765  0.00  0.00    -0.052 A 
ATOM      7  N   UNL     1      52.210 -16.904 -13.636  0.00  0.00    -0.342 N 
ATOM      8  C   UNL     1      51.964 -18.205 -13.272  0.00  0.00    +0.015 A 
ATOM      9  C   UNL     1      53.148 -18.783 -12.859  0.00  0.00    +0.020 A 
ENDROOT
BRANCH   9  10
ATOM     10  C   UNL     1      53.314 -20.142 -12.387  0.00  0.00    +0.055 C 
ATOM     11  N   UNL     1      53.260 -20.393 -11.121  0.00  0.00    -0.187 NA
BRANCH  11  12
ATOM     12  N   UNL     1      53.442 -21.701 -10.760  0.00  0.00    -0.203 N 
ATOM     13  C   UNL     1      52.342 -22.490 -10.460  0.00  0.00    +0.263 C 
ATOM     14  O   UNL     1      51.170 -22.116 -10.514  0.00  0.00    -0.268 OA
ATOM     15  H   UNL     1      54.350 -22.079 -10.713  0.00  0.00    +0.000 HD
BRANCH  13  16
ATOM     16  C   UNL     1      52.634 -23.901 -10.083  0.00  0.00    +0.038 A 
ATOM     17  C   UNL     1      53.884 -24.496 -10.307  0.00  0.00    -0.050 A 
ATOM     18  C   UNL     1      54.105 -25.824  -9.929  0.00  0.00    -0.061 A 
ATOM     19  C   UNL     1      53.086 -26.559  -9.321  0.00  0.00    -0.062 A 
ATOM     20  C   UNL     1      51.847 -25.967  -9.078  0.00  0.00    -0.061 A 
ATOM     21  C   UNL     1      51.623 -24.641  -9.452  0.00  0.00    -0.050 A 
ENDBRANCH  13  16
ENDBRANCH  11  12
ENDBRANCH   9  10
BRANCH   7  22
ATOM     22  C   UNL     1      51.214 -16.039 -14.269  0.00  0.00    +0.048 C 
BRANCH  22  23
ATOM     23  C   UNL     1      50.215 -15.511 -13.268  0.00  0.00    -0.028 A 
ATOM     24  C   UNL     1      48.911 -16.025 -13.225  0.00  0.00    -0.055 A 
ATOM     25  C   UNL     1      47.949 -15.450 -12.392  0.00  0.00    -0.043 A 
ATOM     26  C   UNL     1      48.291 -14.368 -11.586  0.00  0.00    +0.041 A 
ATOM     27  C   UNL     1      49.597 -13.886 -11.568  0.00  0.00    -0.043 A 
ATOM     28  C   UNL     1      50.558 -14.457 -12.406  0.00  0.00    -0.055 A 
ATOM     29 CL   UNL     1      47.083 -13.605 -10.627  0.00  0.00    -0.084 Cl
ENDBRANCH  22  23
ENDBRANCH   7  22
TORSDOF 5
ENDMDL
MODEL 2
REMARK VINA RESULT:    -9.626      1.481      1.868
REMARK INTER + INTRA:         -13.368
REMARK INTER:                 -12.767
REMARK INTRA:                  -0.600
REMARK UNBOUND:                -0.927
REMARK  Name = 18c.sdf
REMARK  5 active torsions:
REMARK  status: ('A' for Active; 'I' for Inactive)
REMARK    1  A    between atoms: N_7  and  C_12
REMARK    2  A    between atoms: C_9  and  C_10
REMARK    3  A    between atoms: N_11  and  N_19
REMARK    4  A    between atoms: C_12  and  C_13
REMARK    5  A    between atoms: C_20  and  C_22
REMARK                            x       y       z     vdW  Elec       q    Type
REMARK                         _______ _______ _______ _____ _____    ______ ____
ROOT
ATOM      1  C   UNL     1      56.210 -15.647 -13.076  0.00  0.00    -0.061 A 
ATOM      2  C   UNL     1      55.597 -14.409 -13.228  0.00  0.00    -0.060 A 
ATOM      3  C   UNL     1      54.233 -14.244 -12.964  0.00  0.00    -0.038 A 
ATOM      4  C   UNL     1      53.494 -15.361 -12.535  0.00  0.00    +0.050 A 
ATOM      5  C   UNL     1      54.104 -16.606 -12.326  0.00  0.00    +0.009 A 
ATOM      6  C   UNL     1      55.479 -16.746 -12.617  0.00  0.00    -0.052 A 
ATOM      7  N   UNL     1      52.149 -15.522 -12.256  0.00  0.00    -0.342 N 
ATOM      8  C   UNL     1      51.919 -16.796 -11.799  0.00  0.00    +0.015 A 
ATOM      9  C   UNL     1      53.107 -17.498 -11.822  0.00  0.00    +0.020 A 
ENDROOT
BRANCH   9  10
ATOM     10  C   UNL     1      53.292 -18.874 -11.410  0.00  0.00    +0.055 C 
ATOM     11  N   UNL     1      52.501 -19.393 -10.530  0.00  0.00    -0.187 NA
BRANCH  11  12
ATOM     12  N   UNL     1      52.756 -20.693 -10.187  0.00  0.00    -0.203 N 
ATOM     13  C   UNL     1      51.911 -21.699 -10.632  0.00  0.00    +0.263 C 
ATOM     14  O   UNL     1      50.929 -21.527 -11.355  0.00  0.00    -0.268 OA
ATOM     15  H   UNL     1      53.535 -20.913  -9.626  0.00  0.00    +0.000 HD
BRANCH  13  16
ATOM     16  C   UNL     1      52.268 -23.084 -10.214  0.00  0.00    +0.038 A 
ATOM     17  C   UNL     1      53.546 -23.625 -10.416  0.00  0.00    -0.050 A 
ATOM     18  C   UNL     1      53.828 -24.930 -10.000  0.00  0.00    -0.061 A 
ATOM     19  C   UNL     1      52.841 -25.694  -9.376  0.00  0.00    -0.062 A 
ATOM     20  C   UNL     1      51.574 -25.155  -9.154  0.00  0.00    -0.061 A 
ATOM     21  C   UNL     1      51.290 -23.852  -9.566  0.00  0.00    -0.050 A 
ENDBRANCH  13  16
ENDBRANCH  11  12
ENDBRANCH   9  10
BRANCH   7  22
ATOM     22  C   UNL     1      51.085 -14.550 -12.511  0.00  0.00    +0.048 C 
BRANCH  22  23
ATOM     23  C   UNL     1      49.771 -15.225 -12.816  0.00  0.00    -0.028 A 
ATOM     24  C   UNL     1      48.669 -15.057 -11.964  0.00  0.00    -0.055 A 
ATOM     25  C   UNL     1      47.495 -15.782 -12.172  0.00  0.00    -0.043 A 
ATOM     26  C   UNL     1      47.409 -16.669 -13.241  0.00  0.00    +0.041 A 
ATOM     27  C   UNL     1      48.470 -16.801 -14.134  0.00  0.00    -0.043 A 
ATOM     28  C   UNL     1      49.648 -16.080 -13.924  0.00  0.00    -0.055 A 
ATOM     29 CL   UNL     1      45.995 -17.627 -13.444  0.00  0.00    -0.084 Cl
ENDBRANCH  22  23
ENDBRANCH   7  22
TORSDOF 5
ENDMDL
MODEL 3
REMARK VINA RESULT:    -9.453      1.213      2.135
REMARK INTER + INTRA:         -13.144
REMARK INTER:                 -12.505
REMARK INTRA:                  -0.639
REMARK UNBOUND:                -0.927
REMARK  Name = 18c.sdf
REMARK  5 active torsions:
REMARK  status: ('A' for Active; 'I' for Inactive)
REMARK    1  A    between atoms: N_7  and  C_12
REMARK    2  A    between atoms: C_9  and  C_10
REMARK    3  A    between atoms: N_11  and  N_19
REMARK    4  A    between atoms: C_12  and  C_13
REMARK    5  A    between atoms: C_20  and  C_22
REMARK                            x       y       z     vdW  Elec       q    Type
REMARK                         _______ _______ _______ _____ _____    ______ ____
ROOT
ATOM      1  C   UNL     1      57.479 -18.652 -12.603  0.00  0.00    -0.061 A 
ATOM      2  C   UNL     1      57.413 -17.312 -12.964  0.00  0.00    -0.060 A 
ATOM      3  C   UNL     1      56.199 -16.724 -13.335  0.00  0.00    -0.038 A 
ATOM      4  C   UNL     1      55.041 -17.520 -13.329  0.00  0.00    +0.050 A 
ATOM      5  C   UNL     1      55.075 -18.860 -12.919  0.00  0.00    +0.009 A 
ATOM      6  C   UNL     1      56.319 -19.431 -12.566  0.00  0.00    -0.052 A 
ATOM      7  N   UNL     1      53.734 -17.246 -13.692  0.00  0.00    -0.342 N 
ATOM      8  C   UNL     1      52.943 -18.339 -13.439  0.00  0.00    +0.015 A 
ATOM      9  C   UNL     1      53.736 -19.360 -12.954  0.00  0.00    +0.020 A 
ENDROOT
BRANCH   9  10
ATOM     10  C   UNL     1      53.283 -20.677 -12.558  0.00  0.00    +0.055 C 
ATOM     11  N   UNL     1      52.789 -20.859 -11.379  0.00  0.00    -0.187 NA
BRANCH  11  12
ATOM     12  N   UNL     1      52.400 -22.137 -11.082  0.00  0.00    -0.203 N 
ATOM     13  C   UNL     1      51.740 -22.394  -9.889  0.00  0.00    +0.263 C 
ATOM     14  O   UNL     1      51.439 -21.543  -9.051  0.00  0.00    -0.268 OA
ATOM     15  H   UNL     1      52.588 -22.871 -11.712  0.00  0.00    +0.000 HD
BRANCH  13  16
ATOM     16  C   UNL     1      51.350 -23.812  -9.652  0.00  0.00    +0.038 A 
ATOM     17  C   UNL     1      50.011 -24.229  -9.620  0.00  0.00    -0.050 A 
ATOM     18  C   UNL     1      49.701 -25.574  -9.397  0.00  0.00    -0.061 A 
ATOM     19  C   UNL     1      50.722 -26.507  -9.213  0.00  0.00    -0.062 A 
ATOM     20  C   UNL     1      52.056 -26.102  -9.261  0.00  0.00    -0.061 A 
ATOM     21  C   UNL     1      52.369 -24.761  -9.486  0.00  0.00    -0.050 A 
ENDBRANCH  13  16
ENDBRANCH  11  12
ENDBRANCH   9  10
BRANCH   7  22
ATOM     22  C   UNL     1      53.252 -16.036 -14.358  0.00  0.00    +0.048 C 
BRANCH  22  23
ATOM     23  C   UNL     1      52.035 -15.466 -13.671  0.00  0.00    -0.028 A 
ATOM     24  C   UNL     1      52.174 -14.520 -12.646  0.00  0.00    -0.055 A 
ATOM     25  C   UNL     1      51.061 -14.090 -11.921  0.00  0.00    -0.043 A 
ATOM     26  C   UNL     1      49.800 -14.591 -12.229  0.00  0.00    +0.041 A 
ATOM     27  C   UNL     1      49.634 -15.483 -13.287  0.00  0.00    -0.043 A 
ATOM     28  C   UNL     1      50.749 -15.918 -14.008  0.00  0.00    -0.055 A 
ATOM     29 CL   UNL     1      48.442 -14.128 -11.279  0.00  0.00    -0.084 Cl
ENDBRANCH  22  23
ENDBRANCH   7  22
TORSDOF 5
ENDMDL
