MODEL 1
REMARK VINA RESULT:    -7.945      0.000      0.000
REMARK INTER + INTRA:          -9.757
REMARK INTER:                  -9.338
REMARK INTRA:                  -0.419
REMARK UNBOUND:                -0.419
REMARK  Name = 1b.sdf
REMARK  3 active torsions:
REMARK  status: ('A' for Active; 'I' for Inactive)
REMARK    1  A    between atoms: N_7  and  C_12
REMARK    2  A    between atoms: C_9  and  C_10
REMARK    3  A    between atoms: C_12  and  C_13
REMARK                            x       y       z     vdW  Elec       q    Type
REMARK                         _______ _______ _______ _____ _____    ______ ____
ROOT
ATOM      1  C   UNL     1      56.459 -17.089 -12.943  0.00  0.00    -0.061 A 
ATOM      2  C   UNL     1      56.004 -15.785 -13.096  0.00  0.00    -0.060 A 
ATOM      3  C   UNL     1      54.659 -15.520 -13.370  0.00  0.00    -0.038 A 
ATOM      4  C   UNL     1      53.773 -16.606 -13.483  0.00  0.00    +0.050 A 
ATOM      5  C   UNL     1      54.204 -17.926 -13.290  0.00  0.00    +0.010 A 
ATOM      6  C   UNL     1      55.569 -18.163 -13.029  0.00  0.00    -0.052 A 
ATOM      7  N   UNL     1      52.425 -16.663 -13.791  0.00  0.00    -0.342 N 
ATOM      8  C   UNL     1      51.988 -17.961 -13.728  0.00  0.00    +0.016 A 
ATOM      9  C   UNL     1      53.061 -18.774 -13.422  0.00  0.00    +0.039 A 
ENDROOT
BRANCH   9  10
ATOM     10  C   UNL     1      53.003 -20.215 -13.279  0.00  0.00    +0.152 C 
ATOM     11  O   UNL     1      51.996 -20.829 -12.935  0.00  0.00    -0.296 OA
ENDBRANCH   9  10
BRANCH   7  12
ATOM     12  C   UNL     1      51.595 -15.552 -14.253  0.00  0.00    +0.048 C 
BRANCH  12  13
ATOM     13  C   UNL     1      50.509 -15.210 -13.270  0.00  0.00    -0.025 A 
ATOM     14  C   UNL     1      49.270 -15.856 -13.317  0.00  0.00    -0.039 A 
ATOM     15  C   UNL     1      48.284 -15.476 -12.421  0.00  0.00    +0.028 A 
ATOM     16  N   UNL     1      48.449 -14.521 -11.483  0.00  0.00    -0.263 NA
ATOM     17  C   UNL     1      49.655 -13.916 -11.441  0.00  0.00    +0.028 A 
ATOM     18  C   UNL     1      50.701 -14.222 -12.298  0.00  0.00    -0.039 A 
ENDBRANCH  12  13
ENDBRANCH   7  12
TORSDOF 3
ENDMDL
MODEL 2
REMARK VINA RESULT:    -7.647      2.755      5.470
REMARK INTER + INTRA:          -9.407
REMARK INTER:                  -8.898
REMARK INTRA:                  -0.509
REMARK UNBOUND:                -0.419
REMARK  Name = 1b.sdf
REMARK  3 active torsions:
REMARK  status: ('A' for Active; 'I' for Inactive)
REMARK    1  A    between atoms: N_7  and  C_12
REMARK    2  A    between atoms: C_9  and  C_10
REMARK    3  A    between atoms: C_12  and  C_13
REMARK                            x       y       z     vdW  Elec       q    Type
REMARK                         _______ _______ _______ _____ _____    ______ ____
ROOT
ATOM      1  C   UNL     1      50.227 -13.953 -11.910  0.00  0.00    -0.061 A 
ATOM      2  C   UNL     1      49.661 -15.221 -11.949  0.00  0.00    -0.060 A 
ATOM      3  C   UNL     1      50.404 -16.328 -12.372  0.00  0.00    -0.038 A 
ATOM      4  C   UNL     1      51.742 -16.129 -12.753  0.00  0.00    +0.050 A 
ATOM      5  C   UNL     1      52.344 -14.865 -12.681  0.00  0.00    +0.010 A 
ATOM      6  C   UNL     1      51.566 -13.765 -12.264  0.00  0.00    -0.052 A 
ATOM      7  N   UNL     1      52.693 -17.000 -13.253  0.00  0.00    -0.342 N 
ATOM      8  C   UNL     1      53.883 -16.340 -13.428  0.00  0.00    +0.016 A 
ATOM      9  C   UNL     1      53.707 -15.014 -13.085  0.00  0.00    +0.039 A 
ENDROOT
BRANCH   9  10
ATOM     10  C   UNL     1      54.732 -13.992 -13.147  0.00  0.00    +0.152 C 
ATOM     11  O   UNL     1      55.232 -13.462 -12.157  0.00  0.00    -0.296 OA
ENDBRANCH   9  10
BRANCH   7  12
ATOM     12  C   UNL     1      52.467 -18.381 -13.674  0.00  0.00    +0.048 C 
BRANCH  12  13
ATOM     13  C   UNL     1      52.448 -19.333 -12.509  0.00  0.00    -0.025 A 
ATOM     14  C   UNL     1      51.686 -20.504 -12.554  0.00  0.00    -0.039 A 
ATOM     15  C   UNL     1      51.662 -21.329 -11.441  0.00  0.00    +0.028 A 
ATOM     16  N   UNL     1      52.349 -21.079 -10.307  0.00  0.00    -0.263 NA
ATOM     17  C   UNL     1      53.090 -19.952 -10.284  0.00  0.00    +0.028 A 
ATOM     18  C   UNL     1      53.173 -19.062 -11.344  0.00  0.00    -0.039 A 
ENDBRANCH  12  13
ENDBRANCH   7  12
TORSDOF 3
ENDMDL
