MODEL 1
REMARK VINA RESULT:    -8.431      0.000      0.000
REMARK INTER + INTRA:         -10.389
REMARK INTER:                  -9.910
REMARK INTRA:                  -0.480
REMARK UNBOUND:                -0.480
REMARK  Name = 1c.sdf
REMARK  3 active torsions:
REMARK  status: ('A' for Active; 'I' for Inactive)
REMARK    1  A    between atoms: N_7  and  C_12
REMARK    2  A    between atoms: C_9  and  C_10
REMARK    3  A    between atoms: C_12  and  C_13
REMARK                            x       y       z     vdW  Elec       q    Type
REMARK                         _______ _______ _______ _____ _____    ______ ____
ROOT
ATOM      1  C   UNL     1      56.358 -17.406 -12.964  0.00  0.00    -0.061 A 
ATOM      2  C   UNL     1      55.900 -16.094 -13.027  0.00  0.00    -0.060 A 
ATOM      3  C   UNL     1      54.544 -15.805 -13.246  0.00  0.00    -0.038 A 
ATOM      4  C   UNL     1      53.651 -16.874 -13.436  0.00  0.00    +0.050 A 
ATOM      5  C   UNL     1      54.085 -18.204 -13.312  0.00  0.00    +0.010 A 
ATOM      6  C   UNL     1      55.454 -18.464 -13.079  0.00  0.00    -0.052 A 
ATOM      7  N   UNL     1      52.302 -16.921 -13.768  0.00  0.00    -0.342 N 
ATOM      8  C   UNL     1      51.873 -18.228 -13.748  0.00  0.00    +0.016 A 
ATOM      9  C   UNL     1      52.949 -19.043 -13.462  0.00  0.00    +0.039 A 
ENDROOT
BRANCH   9  10
ATOM     10  C   UNL     1      52.897 -20.491 -13.358  0.00  0.00    +0.152 C 
ATOM     11  O   UNL     1      52.452 -21.089 -12.387  0.00  0.00    -0.296 OA
ENDBRANCH   9  10
BRANCH   7  12
ATOM     12  C   UNL     1      51.452 -15.823 -14.244  0.00  0.00    +0.048 C 
BRANCH  12  13
ATOM     13  C   UNL     1      50.424 -15.410 -13.219  0.00  0.00    -0.028 A 
ATOM     14  C   UNL     1      49.159 -16.012 -13.214  0.00  0.00    -0.055 A 
ATOM     15  C   UNL     1      48.131 -15.494 -12.424  0.00  0.00    -0.043 A 
ATOM     16  C   UNL     1      48.375 -14.396 -11.603  0.00  0.00    +0.041 A 
ATOM     17  C   UNL     1      49.657 -13.860 -11.507  0.00  0.00    -0.043 A 
ATOM     18  C   UNL     1      50.682 -14.369 -12.311  0.00  0.00    -0.055 A 
ATOM     19 CL   UNL     1      47.073 -13.662 -10.752  0.00  0.00    -0.084 Cl
ENDBRANCH  12  13
ENDBRANCH   7  12
TORSDOF 3
ENDMDL
MODEL 2
REMARK VINA RESULT:    -8.051      3.275      5.899
REMARK INTER + INTRA:          -9.943
REMARK INTER:                  -9.316
REMARK INTRA:                  -0.627
REMARK UNBOUND:                -0.480
REMARK  Name = 1c.sdf
REMARK  3 active torsions:
REMARK  status: ('A' for Active; 'I' for Inactive)
REMARK    1  A    between atoms: N_7  and  C_12
REMARK    2  A    between atoms: C_9  and  C_10
REMARK    3  A    between atoms: C_12  and  C_13
REMARK                            x       y       z     vdW  Elec       q    Type
REMARK                         _______ _______ _______ _____ _____    ______ ____
ROOT
ATOM      1  C   UNL     1      49.601 -14.358 -11.928  0.00  0.00    -0.061 A 
ATOM      2  C   UNL     1      49.267 -15.704 -12.042  0.00  0.00    -0.060 A 
ATOM      3  C   UNL     1      50.217 -16.660 -12.432  0.00  0.00    -0.038 A 
ATOM      4  C   UNL     1      51.519 -16.228 -12.741  0.00  0.00    +0.050 A 
ATOM      5  C   UNL     1      51.890 -14.884 -12.570  0.00  0.00    +0.010 A 
ATOM      6  C   UNL     1      50.914 -13.946 -12.165  0.00  0.00    -0.052 A 
ATOM      7  N   UNL     1      52.632 -16.892 -13.244  0.00  0.00    -0.342 N 
ATOM      8  C   UNL     1      53.699 -16.023 -13.287  0.00  0.00    +0.016 A 
ATOM      9  C   UNL     1      53.274 -14.779 -12.871  0.00  0.00    +0.039 A 
ENDROOT
BRANCH   9  10
ATOM     10  C   UNL     1      54.112 -13.595 -12.782  0.00  0.00    +0.152 C 
ATOM     11  O   UNL     1      55.245 -13.595 -12.321  0.00  0.00    -0.296 OA
ENDBRANCH   9  10
BRANCH   7  12
ATOM     12  C   UNL     1      52.694 -18.240 -13.818  0.00  0.00    +0.048 C 
BRANCH  12  13
ATOM     13  C   UNL     1      52.601 -19.316 -12.764  0.00  0.00    -0.028 A 
ATOM     14  C   UNL     1      51.711 -20.385 -12.930  0.00  0.00    -0.055 A 
ATOM     15  C   UNL     1      51.455 -21.264 -11.877  0.00  0.00    -0.043 A 
ATOM     16  C   UNL     1      52.119 -21.103 -10.664  0.00  0.00    +0.041 A 
ATOM     17  C   UNL     1      53.094 -20.119 -10.520  0.00  0.00    -0.043 A 
ATOM     18  C   UNL     1      53.338 -19.228 -11.571  0.00  0.00    -0.055 A 
ATOM     19 CL   UNL     1      51.688 -22.085  -9.319  0.00  0.00    -0.084 Cl
ENDBRANCH  12  13
ENDBRANCH   7  12
TORSDOF 3
ENDMDL
MODEL 3
REMARK VINA RESULT:    -8.046      2.376      3.412
REMARK INTER + INTRA:          -9.937
REMARK INTER:                  -9.524
REMARK INTRA:                  -0.413
REMARK UNBOUND:                -0.480
REMARK  Name = 1c.sdf
REMARK  3 active torsions:
REMARK  status: ('A' for Active; 'I' for Inactive)
REMARK    1  A    between atoms: N_7  and  C_12
REMARK    2  A    between atoms: C_9  and  C_10
REMARK    3  A    between atoms: C_12  and  C_13
REMARK                            x       y       z     vdW  Elec       q    Type
REMARK                         _______ _______ _______ _____ _____    ______ ____
ROOT
ATOM      1  C   UNL     1      53.870 -19.237 -10.567  0.00  0.00    -0.061 A 
ATOM      2  C   UNL     1      52.692 -18.498 -10.605  0.00  0.00    -0.060 A 
ATOM      3  C   UNL     1      52.604 -17.304 -11.337  0.00  0.00    -0.038 A 
ATOM      4  C   UNL     1      53.746 -16.843 -12.013  0.00  0.00    +0.050 A 
ATOM      5  C   UNL     1      54.924 -17.609 -12.038  0.00  0.00    +0.010 A 
ATOM      6  C   UNL     1      54.980 -18.813 -11.301  0.00  0.00    -0.052 A 
ATOM      7  N   UNL     1      54.010 -15.677 -12.721  0.00  0.00    -0.342 N 
ATOM      8  C   UNL     1      55.272 -15.750 -13.267  0.00  0.00    +0.016 A 
ATOM      9  C   UNL     1      55.858 -16.934 -12.869  0.00  0.00    +0.039 A 
ENDROOT
BRANCH   9  10
ATOM     10  C   UNL     1      57.194 -17.371 -13.237  0.00  0.00    +0.152 C 
ATOM     11  O   UNL     1      58.118 -17.481 -12.442  0.00  0.00    -0.296 OA
ENDBRANCH   9  10
BRANCH   7  12
ATOM     12  C   UNL     1      53.200 -14.455 -12.779  0.00  0.00    +0.048 C 
BRANCH  12  13
ATOM     13  C   UNL     1      51.749 -14.743 -13.080  0.00  0.00    -0.028 A 
ATOM     14  C   UNL     1      50.757 -14.375 -12.161  0.00  0.00    -0.055 A 
ATOM     15  C   UNL     1      49.445 -14.824 -12.318  0.00  0.00    -0.043 A 
ATOM     16  C   UNL     1      49.109 -15.611 -13.417  0.00  0.00    +0.041 A 
ATOM     17  C   UNL     1      50.056 -15.887 -14.401  0.00  0.00    -0.043 A 
ATOM     18  C   UNL     1      51.375 -15.450 -14.234  0.00  0.00    -0.055 A 
ATOM     19 CL   UNL     1      47.535 -16.294 -13.527  0.00  0.00    -0.084 Cl
ENDBRANCH  12  13
ENDBRANCH   7  12
TORSDOF 3
ENDMDL
