MODEL 1
REMARK VINA RESULT:    -9.153      0.000      0.000
REMARK INTER + INTRA:         -13.014
REMARK INTER:                 -12.363
REMARK INTRA:                  -0.651
REMARK UNBOUND:                -0.651
REMARK  Name = 22a.sdf
REMARK  7 active torsions:
REMARK  status: ('A' for Active; 'I' for Inactive)
REMARK    1  A    between atoms: N_7  and  C_12
REMARK    2  A    between atoms: C_9  and  C_10
REMARK    3  A    between atoms: N_11  and  N_19
REMARK    4  A    between atoms: C_12  and  C_13
REMARK    5  A    between atoms: C_20  and  C_22
REMARK    6  A    between atoms: C_25  and  O_29
REMARK    7  A    between atoms: O_29  and  C_30
REMARK                            x       y       z     vdW  Elec       q    Type
REMARK                         _______ _______ _______ _____ _____    ______ ____
ROOT
ATOM      1  C   UNL     1      55.665 -15.042 -13.225  0.00  0.00    -0.061 A 
ATOM      2  C   UNL     1      54.912 -13.885 -13.388  0.00  0.00    -0.060 A 
ATOM      3  C   UNL     1      53.559 -13.853 -13.038  0.00  0.00    -0.038 A 
ATOM      4  C   UNL     1      52.977 -15.017 -12.507  0.00  0.00    +0.050 A 
ATOM      5  C   UNL     1      53.728 -16.181 -12.290  0.00  0.00    +0.009 A 
ATOM      6  C   UNL     1      55.089 -16.189 -12.672  0.00  0.00    -0.052 A 
ATOM      7  N   UNL     1      51.679 -15.299 -12.122  0.00  0.00    -0.342 N 
ATOM      8  C   UNL     1      51.616 -16.569 -11.601  0.00  0.00    +0.015 A 
ATOM      9  C   UNL     1      52.868 -17.147 -11.679  0.00  0.00    +0.020 A 
ENDROOT
BRANCH   9  10
ATOM     10  C   UNL     1      53.223 -18.472 -11.222  0.00  0.00    +0.055 C 
ATOM     11  N   UNL     1      53.183 -19.471 -12.049  0.00  0.00    -0.187 NA
BRANCH  11  12
ATOM     12  N   UNL     1      53.525 -20.693 -11.535  0.00  0.00    -0.203 N 
ATOM     13  C   UNL     1      52.534 -21.640 -11.323  0.00  0.00    +0.263 C 
ATOM     14  O   UNL     1      51.344 -21.488 -11.574  0.00  0.00    -0.268 OA
ATOM     15  H   UNL     1      54.463 -20.898 -11.319  0.00  0.00    +0.000 HD
BRANCH  13  16
ATOM     16  C   UNL     1      52.994 -22.956 -10.786  0.00  0.00    +0.039 A 
ATOM     17  C   UNL     1      54.297 -23.430 -10.963  0.00  0.00    -0.046 A 
ATOM     18  C   UNL     1      54.659 -24.679 -10.447  0.00  0.00    -0.019 A 
ATOM     19  C   UNL     1      53.742 -25.452  -9.730  0.00  0.00    +0.120 A 
ATOM     20  C   UNL     1      52.448 -24.972  -9.534  0.00  0.00    -0.019 A 
ATOM     21  C   UNL     1      52.077 -23.727 -10.057  0.00  0.00    -0.046 A 
BRANCH  19  22
ATOM     22  O   UNL     1      54.207 -26.671  -9.319  0.00  0.00    -0.495 OA
ATOM     23  C   UNL     1      55.086 -26.670  -8.202  0.00  0.00    +0.079 C 
ENDBRANCH  19  22
ENDBRANCH  13  16
ENDBRANCH  11  12
ENDBRANCH   9  10
BRANCH   7  24
ATOM     24  C   UNL     1      50.511 -14.442 -12.322  0.00  0.00    +0.048 C 
BRANCH  24  25
ATOM     25  C   UNL     1      49.281 -15.246 -12.659  0.00  0.00    -0.028 A 
ATOM     26  C   UNL     1      48.108 -15.106 -11.903  0.00  0.00    -0.056 A 
ATOM     27  C   UNL     1      47.008 -15.935 -12.138  0.00  0.00    -0.047 A 
ATOM     28  C   UNL     1      47.071 -16.898 -13.141  0.00  0.00    +0.018 A 
ATOM     29  C   UNL     1      48.206 -17.011 -13.941  0.00  0.00    -0.047 A 
ATOM     30  C   UNL     1      49.307 -16.186 -13.701  0.00  0.00    -0.056 A 
ATOM     31 BR   UNL     1      45.620 -18.083 -13.394  0.00  0.00    -0.050 Br
ENDBRANCH  24  25
ENDBRANCH   7  24
TORSDOF 6
ENDMDL
MODEL 2
REMARK VINA RESULT:    -9.086      3.660      6.094
REMARK INTER + INTRA:         -12.924
REMARK INTER:                 -12.367
REMARK INTRA:                  -0.557
REMARK UNBOUND:                -0.651
REMARK  Name = 22a.sdf
REMARK  7 active torsions:
REMARK  status: ('A' for Active; 'I' for Inactive)
REMARK    1  A    between atoms: N_7  and  C_12
REMARK    2  A    between atoms: C_9  and  C_10
REMARK    3  A    between atoms: N_11  and  N_19
REMARK    4  A    between atoms: C_12  and  C_13
REMARK    5  A    between atoms: C_20  and  C_22
REMARK    6  A    between atoms: C_25  and  O_29
REMARK    7  A    between atoms: O_29  and  C_30
REMARK                            x       y       z     vdW  Elec       q    Type
REMARK                         _______ _______ _______ _____ _____    ______ ____
ROOT
ATOM      1  C   UNL     1      51.128 -14.342 -12.344  0.00  0.00    -0.061 A 
ATOM      2  C   UNL     1      52.196 -13.601 -12.836  0.00  0.00    -0.060 A 
ATOM      3  C   UNL     1      53.454 -14.185 -13.013  0.00  0.00    -0.038 A 
ATOM      4  C   UNL     1      53.614 -15.544 -12.691  0.00  0.00    +0.050 A 
ATOM      5  C   UNL     1      52.539 -16.322 -12.238  0.00  0.00    +0.009 A 
ATOM      6  C   UNL     1      51.284 -15.700 -12.050  0.00  0.00    -0.052 A 
ATOM      7  N   UNL     1      54.724 -16.367 -12.715  0.00  0.00    -0.342 N 
ATOM      8  C   UNL     1      54.361 -17.645 -12.368  0.00  0.00    +0.015 A 
ATOM      9  C   UNL     1      53.011 -17.662 -12.074  0.00  0.00    +0.020 A 
ENDROOT
BRANCH   9  10
ATOM     10  C   UNL     1      52.241 -18.821 -11.680  0.00  0.00    +0.055 C 
ATOM     11  N   UNL     1      52.686 -19.604 -10.748  0.00  0.00    -0.187 NA
BRANCH  11  12
ATOM     12  N   UNL     1      51.902 -20.683 -10.441  0.00  0.00    -0.203 N 
ATOM     13  C   UNL     1      52.482 -21.940 -10.349  0.00  0.00    +0.263 C 
ATOM     14  O   UNL     1      53.674 -22.183 -10.507  0.00  0.00    -0.268 OA
ATOM     15  H   UNL     1      50.936 -20.570 -10.286  0.00  0.00    +0.000 HD
BRANCH  13  16
ATOM     16  C   UNL     1      51.562 -23.059  -9.984  0.00  0.00    +0.039 A 
ATOM     17  C   UNL     1      50.171 -22.925  -9.994  0.00  0.00    -0.046 A 
ATOM     18  C   UNL     1      49.366 -24.009  -9.626  0.00  0.00    -0.019 A 
ATOM     19  C   UNL     1      49.933 -25.238  -9.274  0.00  0.00    +0.120 A 
ATOM     20  C   UNL     1      51.319 -25.378  -9.284  0.00  0.00    -0.019 A 
ATOM     21  C   UNL     1      52.130 -24.294  -9.641  0.00  0.00    -0.046 A 
BRANCH  19  22
ATOM     22  O   UNL     1      49.040 -26.200  -8.891  0.00  0.00    -0.495 OA
ATOM     23  C   UNL     1      47.814 -26.247  -9.610  0.00  0.00    +0.079 C 
ENDBRANCH  19  22
ENDBRANCH  13  16
ENDBRANCH  11  12
ENDBRANCH   9  10
BRANCH   7  24
ATOM     24  C   UNL     1      56.105 -15.952 -12.962  0.00  0.00    +0.048 C 
BRANCH  24  25
ATOM     25  C   UNL     1      57.092 -16.999 -12.512  0.00  0.00    -0.028 A 
ATOM     26  C   UNL     1      57.855 -17.710 -13.449  0.00  0.00    -0.056 A 
ATOM     27  C   UNL     1      58.680 -18.761 -13.043  0.00  0.00    -0.047 A 
ATOM     28  C   UNL     1      58.756 -19.098 -11.695  0.00  0.00    +0.018 A 
ATOM     29  C   UNL     1      58.051 -18.365 -10.743  0.00  0.00    -0.047 A 
ATOM     30  C   UNL     1      57.222 -17.318 -11.150  0.00  0.00    -0.056 A 
ATOM     31 BR   UNL     1      59.796 -20.582 -11.157  0.00  0.00    -0.050 Br
ENDBRANCH  24  25
ENDBRANCH   7  24
TORSDOF 6
ENDMDL
MODEL 3
REMARK VINA RESULT:    -8.960      4.751      7.917
REMARK INTER + INTRA:         -12.753
REMARK INTER:                 -12.237
REMARK INTRA:                  -0.516
REMARK UNBOUND:                -0.651
REMARK  Name = 22a.sdf
REMARK  7 active torsions:
REMARK  status: ('A' for Active; 'I' for Inactive)
REMARK    1  A    between atoms: N_7  and  C_12
REMARK    2  A    between atoms: C_9  and  C_10
REMARK    3  A    between atoms: N_11  and  N_19
REMARK    4  A    between atoms: C_12  and  C_13
REMARK    5  A    between atoms: C_20  and  C_22
REMARK    6  A    between atoms: C_25  and  O_29
REMARK    7  A    between atoms: O_29  and  C_30
REMARK                            x       y       z     vdW  Elec       q    Type
REMARK                         _______ _______ _______ _____ _____    ______ ____
ROOT
ATOM      1  C   UNL     1      52.954 -13.504 -12.846  0.00  0.00    -0.061 A 
ATOM      2  C   UNL     1      54.327 -13.292 -12.883  0.00  0.00    -0.060 A 
ATOM      3  C   UNL     1      55.216 -14.362 -13.016  0.00  0.00    -0.038 A 
ATOM      4  C   UNL     1      54.690 -15.661 -13.121  0.00  0.00    +0.050 A 
ATOM      5  C   UNL     1      53.307 -15.895 -13.134  0.00  0.00    +0.009 A 
ATOM      6  C   UNL     1      52.433 -14.795 -12.978  0.00  0.00    -0.052 A 
ATOM      7  N   UNL     1      55.306 -16.896 -13.213  0.00  0.00    -0.342 N 
ATOM      8  C   UNL     1      54.357 -17.878 -13.360  0.00  0.00    +0.015 A 
ATOM      9  C   UNL     1      53.103 -17.297 -13.326  0.00  0.00    +0.020 A 
ENDROOT
BRANCH   9  10
ATOM     10  C   UNL     1      51.841 -17.990 -13.462  0.00  0.00    +0.055 C 
ATOM     11  N   UNL     1      50.865 -17.714 -12.654  0.00  0.00    -0.187 NA
BRANCH  11  12
ATOM     12  N   UNL     1      49.708 -18.420 -12.844  0.00  0.00    -0.203 N 
ATOM     13  C   UNL     1      48.752 -17.932 -13.724  0.00  0.00    +0.263 C 
ATOM     14  O   UNL     1      48.855 -16.902 -14.380  0.00  0.00    -0.268 OA
ATOM     15  H   UNL     1      49.555 -19.266 -12.364  0.00  0.00    +0.000 HD
BRANCH  13  16
ATOM     16  C   UNL     1      47.531 -18.775 -13.894  0.00  0.00    +0.039 A 
ATOM     17  C   UNL     1      47.560 -20.030 -14.511  0.00  0.00    -0.046 A 
ATOM     18  C   UNL     1      46.377 -20.763 -14.652  0.00  0.00    -0.019 A 
ATOM     19  C   UNL     1      45.164 -20.270 -14.162  0.00  0.00    +0.120 A 
ATOM     20  C   UNL     1      45.137 -19.029 -13.529  0.00  0.00    -0.019 A 
ATOM     21  C   UNL     1      46.317 -18.286 -13.393  0.00  0.00    -0.046 A 
BRANCH  19  22
ATOM     22  O   UNL     1      44.076 -21.061 -14.405  0.00  0.00    -0.495 OA
ATOM     23  C   UNL     1      43.883 -21.477 -15.751  0.00  0.00    +0.079 C 
ENDBRANCH  19  22
ENDBRANCH  13  16
ENDBRANCH  11  12
ENDBRANCH   9  10
BRANCH   7  24
ATOM     24  C   UNL     1      56.737 -17.162 -13.071  0.00  0.00    +0.048 C 
BRANCH  24  25
ATOM     25  C   UNL     1      56.994 -18.475 -12.376  0.00  0.00    -0.028 A 
ATOM     26  C   UNL     1      57.592 -19.541 -13.064  0.00  0.00    -0.056 A 
ATOM     27  C   UNL     1      57.721 -20.793 -12.460  0.00  0.00    -0.047 A 
ATOM     28  C   UNL     1      57.267 -20.982 -11.157  0.00  0.00    +0.018 A 
ATOM     29  C   UNL     1      56.724 -19.919 -10.438  0.00  0.00    -0.047 A 
ATOM     30  C   UNL     1      56.590 -18.669 -11.046  0.00  0.00    -0.056 A 
ATOM     31 BR   UNL     1      57.353 -22.700 -10.375  0.00  0.00    -0.050 Br
ENDBRANCH  24  25
ENDBRANCH   7  24
TORSDOF 6
ENDMDL
