MODEL 1
REMARK VINA RESULT:    -9.058      0.000      0.000
REMARK INTER + INTRA:         -13.493
REMARK INTER:                 -12.765
REMARK INTRA:                  -0.728
REMARK UNBOUND:                -0.728
REMARK  Name = 23a.sdf
REMARK  9 active torsions:
REMARK  status: ('A' for Active; 'I' for Inactive)
REMARK    1  A    between atoms: N_7  and  C_12
REMARK    2  A    between atoms: C_9  and  C_10
REMARK    3  A    between atoms: N_11  and  N_19
REMARK    4  A    between atoms: C_12  and  C_13
REMARK    5  A    between atoms: C_20  and  C_22
REMARK    6  A    between atoms: C_24  and  O_30
REMARK    7  A    between atoms: C_25  and  O_29
REMARK    8  A    between atoms: O_29  and  C_32
REMARK    9  A    between atoms: O_30  and  C_31
REMARK                            x       y       z     vdW  Elec       q    Type
REMARK                         _______ _______ _______ _____ _____    ______ ____
ROOT
ATOM      1  C   UNL     1      55.637 -14.862 -13.373  0.00  0.00    -0.061 A 
ATOM      2  C   UNL     1      54.894 -13.694 -13.376  0.00  0.00    -0.060 A 
ATOM      3  C   UNL     1      53.589 -13.678 -12.868  0.00  0.00    -0.038 A 
ATOM      4  C   UNL     1      52.983 -14.884 -12.464  0.00  0.00    +0.050 A 
ATOM      5  C   UNL     1      53.737 -16.070 -12.414  0.00  0.00    +0.009 A 
ATOM      6  C   UNL     1      55.087 -16.039 -12.855  0.00  0.00    -0.052 A 
ATOM      7  N   UNL     1      51.690 -15.195 -12.057  0.00  0.00    -0.342 N 
ATOM      8  C   UNL     1      51.654 -16.523 -11.682  0.00  0.00    +0.015 A 
ATOM      9  C   UNL     1      52.903 -17.093 -11.855  0.00  0.00    +0.020 A 
ENDROOT
BRANCH   9  10
ATOM     10  C   UNL     1      53.291 -18.454 -11.524  0.00  0.00    +0.055 C 
ATOM     11  N   UNL     1      52.584 -19.149 -10.681  0.00  0.00    -0.187 NA
BRANCH  11  12
ATOM     12  N   UNL     1      53.020 -20.419 -10.401  0.00  0.00    -0.203 N 
ATOM     13  C   UNL     1      52.393 -21.502 -10.996  0.00  0.00    +0.263 C 
ATOM     14  O   UNL     1      51.439 -21.420 -11.786  0.00  0.00    -0.268 OA
ATOM     15  H   UNL     1      53.771 -20.560  -9.782  0.00  0.00    +0.000 HD
BRANCH  13  16
ATOM     16  C   UNL     1      52.939 -22.852 -10.689  0.00  0.00    +0.042 A 
ATOM     17  C   UNL     1      52.160 -23.845 -10.085  0.00  0.00    -0.004 A 
ATOM     18  C   UNL     1      52.731 -25.077  -9.733  0.00  0.00    +0.162 A 
ATOM     19  C   UNL     1      54.084 -25.342 -10.043  0.00  0.00    +0.162 A 
ATOM     20  C   UNL     1      54.831 -24.379 -10.727  0.00  0.00    -0.016 A 
ATOM     21  C   UNL     1      54.266 -23.138 -11.034  0.00  0.00    -0.046 A 
BRANCH  19  22
ATOM     22  O   UNL     1      54.579 -26.558  -9.639  0.00  0.00    -0.491 OA
ATOM     23  C   UNL     1      55.882 -26.584  -9.068  0.00  0.00    +0.079 C 
ENDBRANCH  19  22
BRANCH  18  24
ATOM     24  O   UNL     1      52.048 -26.078  -9.085  0.00  0.00    -0.491 OA
ATOM     25  C   UNL     1      51.341 -25.731  -7.902  0.00  0.00    +0.079 C 
ENDBRANCH  18  24
ENDBRANCH  13  16
ENDBRANCH  11  12
ENDBRANCH   9  10
BRANCH   7  26
ATOM     26  C   UNL     1      50.468 -14.367 -12.136  0.00  0.00    +0.048 C 
BRANCH  26  27
ATOM     27  C   UNL     1      49.249 -15.112 -12.640  0.00  0.00    -0.028 A 
ATOM     28  C   UNL     1      48.029 -15.027 -11.949  0.00  0.00    -0.056 A 
ATOM     29  C   UNL     1      47.006 -15.943 -12.208  0.00  0.00    -0.047 A 
ATOM     30  C   UNL     1      47.161 -16.887 -13.220  0.00  0.00    +0.018 A 
ATOM     31  C   UNL     1      48.297 -16.875 -14.026  0.00  0.00    -0.047 A 
ATOM     32  C   UNL     1      49.342 -15.993 -13.734  0.00  0.00    -0.056 A 
ATOM     33 BR   UNL     1      45.887 -18.270 -13.420  0.00  0.00    -0.050 Br
ENDBRANCH  26  27
ENDBRANCH   7  26
TORSDOF 7
ENDMDL
MODEL 2
REMARK VINA RESULT:    -8.871      4.355      7.406
REMARK INTER + INTRA:         -13.229
REMARK INTER:                 -12.234
REMARK INTRA:                  -0.995
REMARK UNBOUND:                -0.728
REMARK  Name = 23a.sdf
REMARK  9 active torsions:
REMARK  status: ('A' for Active; 'I' for Inactive)
REMARK    1  A    between atoms: N_7  and  C_12
REMARK    2  A    between atoms: C_9  and  C_10
REMARK    3  A    between atoms: N_11  and  N_19
REMARK    4  A    between atoms: C_12  and  C_13
REMARK    5  A    between atoms: C_20  and  C_22
REMARK    6  A    between atoms: C_24  and  O_30
REMARK    7  A    between atoms: C_25  and  O_29
REMARK    8  A    between atoms: O_29  and  C_32
REMARK    9  A    between atoms: O_30  and  C_31
REMARK                            x       y       z     vdW  Elec       q    Type
REMARK                         _______ _______ _______ _____ _____    ______ ____
ROOT
ATOM      1  C   UNL     1      52.680 -13.303 -12.577  0.00  0.00    -0.061 A 
ATOM      2  C   UNL     1      54.059 -13.184 -12.576  0.00  0.00    -0.060 A 
ATOM      3  C   UNL     1      54.869 -14.278 -12.908  0.00  0.00    -0.038 A 
ATOM      4  C   UNL     1      54.282 -15.540 -13.126  0.00  0.00    +0.050 A 
ATOM      5  C   UNL     1      52.882 -15.667 -13.174  0.00  0.00    +0.009 A 
ATOM      6  C   UNL     1      52.083 -14.522 -12.918  0.00  0.00    -0.052 A 
ATOM      7  N   UNL     1      54.823 -16.804 -13.332  0.00  0.00    -0.342 N 
ATOM      8  C   UNL     1      53.793 -17.687 -13.586  0.00  0.00    +0.015 A 
ATOM      9  C   UNL     1      52.581 -17.023 -13.531  0.00  0.00    +0.020 A 
ENDROOT
BRANCH   9  10
ATOM     10  C   UNL     1      51.267 -17.586 -13.793  0.00  0.00    +0.055 C 
ATOM     11  N   UNL     1      50.585 -18.132 -12.828  0.00  0.00    -0.187 NA
BRANCH  11  12
ATOM     12  N   UNL     1      49.362 -18.661 -13.152  0.00  0.00    -0.203 N 
ATOM     13  C   UNL     1      49.269 -19.996 -13.510  0.00  0.00    +0.263 C 
ATOM     14  O   UNL     1      50.228 -20.781 -13.565  0.00  0.00    -0.268 OA
ATOM     15  H   UNL     1      48.557 -18.096 -13.131  0.00  0.00    +0.000 HD
BRANCH  13  16
ATOM     16  C   UNL     1      47.909 -20.523 -13.806  0.00  0.00    +0.042 A 
ATOM     17  C   UNL     1      47.139 -21.169 -12.833  0.00  0.00    -0.004 A 
ATOM     18  C   UNL     1      45.897 -21.729 -13.168  0.00  0.00    +0.162 A 
ATOM     19  C   UNL     1      45.392 -21.590 -14.480  0.00  0.00    +0.162 A 
ATOM     20  C   UNL     1      46.127 -20.867 -15.423  0.00  0.00    -0.016 A 
ATOM     21  C   UNL     1      47.383 -20.351 -15.092  0.00  0.00    -0.046 A 
BRANCH  19  22
ATOM     22  O   UNL     1      44.185 -22.193 -14.739  0.00  0.00    -0.491 OA
ATOM     23  C   UNL     1      43.325 -21.570 -15.687  0.00  0.00    +0.079 C 
ENDBRANCH  19  22
BRANCH  18  24
ATOM     24  O   UNL     1      45.110 -22.428 -12.284  0.00  0.00    -0.491 OA
ATOM     25  C   UNL     1      45.625 -23.650 -11.772  0.00  0.00    +0.079 C 
ENDBRANCH  18  24
ENDBRANCH  13  16
ENDBRANCH  11  12
ENDBRANCH   9  10
BRANCH   7  26
ATOM     26  C   UNL     1      56.220 -17.254 -13.164  0.00  0.00    +0.048 C 
BRANCH  26  27
ATOM     27  C   UNL     1      56.373 -18.485 -12.294  0.00  0.00    -0.028 A 
ATOM     28  C   UNL     1      56.748 -19.714 -12.862  0.00  0.00    -0.056 A 
ATOM     29  C   UNL     1      56.580 -20.903 -12.146  0.00  0.00    -0.047 A 
ATOM     30  C   UNL     1      56.126 -20.861 -10.830  0.00  0.00    +0.018 A 
ATOM     31  C   UNL     1      55.911 -19.638 -10.198  0.00  0.00    -0.047 A 
ATOM     32  C   UNL     1      56.029 -18.452 -10.930  0.00  0.00    -0.056 A 
ATOM     33 BR   UNL     1      55.677 -22.467  -9.938  0.00  0.00    -0.050 Br
ENDBRANCH  26  27
ENDBRANCH   7  26
TORSDOF 7
ENDMDL
MODEL 3
REMARK VINA RESULT:    -8.769      1.922      2.380
REMARK INTER + INTRA:         -13.085
REMARK INTER:                 -12.094
REMARK INTRA:                  -0.991
REMARK UNBOUND:                -0.728
REMARK  Name = 23a.sdf
REMARK  9 active torsions:
REMARK  status: ('A' for Active; 'I' for Inactive)
REMARK    1  A    between atoms: N_7  and  C_12
REMARK    2  A    between atoms: C_9  and  C_10
REMARK    3  A    between atoms: N_11  and  N_19
REMARK    4  A    between atoms: C_12  and  C_13
REMARK    5  A    between atoms: C_20  and  C_22
REMARK    6  A    between atoms: C_24  and  O_30
REMARK    7  A    between atoms: C_25  and  O_29
REMARK    8  A    between atoms: O_29  and  C_32
REMARK    9  A    between atoms: O_30  and  C_31
REMARK                            x       y       z     vdW  Elec       q    Type
REMARK                         _______ _______ _______ _____ _____    ______ ____
ROOT
ATOM      1  C   UNL     1      55.744 -14.630 -12.897  0.00  0.00    -0.061 A 
ATOM      2  C   UNL     1      54.707 -13.729 -13.068  0.00  0.00    -0.060 A 
ATOM      3  C   UNL     1      53.397 -14.180 -13.275  0.00  0.00    -0.038 A 
ATOM      4  C   UNL     1      53.152 -15.558 -13.434  0.00  0.00    +0.050 A 
ATOM      5  C   UNL     1      54.185 -16.488 -13.220  0.00  0.00    +0.009 A 
ATOM      6  C   UNL     1      55.487 -16.005 -12.925  0.00  0.00    -0.052 A 
ATOM      7  N   UNL     1      52.010 -16.275 -13.776  0.00  0.00    -0.342 N 
ATOM      8  C   UNL     1      52.298 -17.623 -13.698  0.00  0.00    +0.015 A 
ATOM      9  C   UNL     1      53.618 -17.800 -13.326  0.00  0.00    +0.020 A 
ENDROOT
BRANCH   9  10
ATOM     10  C   UNL     1      54.291 -19.065 -13.084  0.00  0.00    +0.055 C 
ATOM     11  N   UNL     1      53.598 -20.159 -12.948  0.00  0.00    -0.187 NA
BRANCH  11  12
ATOM     12  N   UNL     1      54.298 -21.313 -12.701  0.00  0.00    -0.203 N 
ATOM     13  C   UNL     1      54.096 -21.993 -11.511  0.00  0.00    +0.263 C 
ATOM     14  O   UNL     1      53.310 -21.637 -10.619  0.00  0.00    -0.268 OA
ATOM     15  H   UNL     1      54.939 -21.654 -13.365  0.00  0.00    +0.000 HD
BRANCH  13  16
ATOM     16  C   UNL     1      54.849 -23.262 -11.321  0.00  0.00    +0.042 A 
ATOM     17  C   UNL     1      54.478 -24.204 -10.355  0.00  0.00    -0.004 A 
ATOM     18  C   UNL     1      55.260 -25.350 -10.146  0.00  0.00    +0.162 A 
ATOM     19  C   UNL     1      56.396 -25.585 -10.952  0.00  0.00    +0.162 A 
ATOM     20  C   UNL     1      56.709 -24.685 -11.973  0.00  0.00    -0.016 A 
ATOM     21  C   UNL     1      55.950 -23.524 -12.146  0.00  0.00    -0.046 A 
BRANCH  19  22
ATOM     22  O   UNL     1      57.129 -26.711 -10.665  0.00  0.00    -0.491 OA
ATOM     23  C   UNL     1      58.385 -26.537 -10.020  0.00  0.00    +0.079 C 
ENDBRANCH  19  22
BRANCH  18  24
ATOM     24  O   UNL     1      54.994 -26.290  -9.179  0.00  0.00    -0.491 OA
ATOM     25  C   UNL     1      55.120 -25.889  -7.821  0.00  0.00    +0.079 C 
ENDBRANCH  18  24
ENDBRANCH  13  16
ENDBRANCH  11  12
ENDBRANCH   9  10
BRANCH   7  26
ATOM     26  C   UNL     1      50.725 -15.774 -14.305  0.00  0.00    +0.048 C 
BRANCH  26  27
ATOM     27  C   UNL     1      49.691 -15.478 -13.238  0.00  0.00    -0.028 A 
ATOM     28  C   UNL     1      48.401 -16.027 -13.326  0.00  0.00    -0.056 A 
ATOM     29  C   UNL     1      47.361 -15.515 -12.545  0.00  0.00    -0.047 A 
ATOM     30  C   UNL     1      47.624 -14.518 -11.608  0.00  0.00    +0.018 A 
ATOM     31  C   UNL     1      48.929 -14.083 -11.391  0.00  0.00    -0.047 A 
ATOM     32  C   UNL     1      49.961 -14.557 -12.208  0.00  0.00    -0.056 A 
ATOM     33 BR   UNL     1      46.192 -13.662 -10.718  0.00  0.00    -0.050 Br
ENDBRANCH  26  27
ENDBRANCH   7  26
TORSDOF 7
ENDMDL
