MODEL 1
REMARK VINA RESULT:    -9.641      0.000      0.000
REMARK INTER + INTRA:         -13.777
REMARK INTER:                 -13.022
REMARK INTRA:                  -0.755
REMARK UNBOUND:                -0.755
REMARK  Name = 25a.sdf
REMARK  7 active torsions:
REMARK  status: ('A' for Active; 'I' for Inactive)
REMARK    1  A    between atoms: N_7  and  C_10
REMARK    2  A    between atoms: C_9  and  C_18
REMARK    3  A    between atoms: C_10  and  C_11
REMARK    4  A    between atoms: N_19  and  N_20
REMARK    5  A    between atoms: C_21  and  C_23
REMARK    6  A    between atoms: C_25  and  O_29
REMARK    7  A    between atoms: C_27  and  O_30
REMARK                            x       y       z     vdW  Elec       q    Type
REMARK                         _______ _______ _______ _____ _____    ______ ____
ROOT
ATOM      1  C   UNL     1      56.160 -16.200 -13.064  0.00  0.00    -0.061 A 
ATOM      2  C   UNL     1      55.649 -14.937 -13.335  0.00  0.00    -0.060 A 
ATOM      3  C   UNL     1      54.312 -14.622 -13.053  0.00  0.00    -0.038 A 
ATOM      4  C   UNL     1      53.484 -15.622 -12.513  0.00  0.00    +0.050 A 
ATOM      5  C   UNL     1      53.999 -16.883 -12.174  0.00  0.00    +0.009 A 
ATOM      6  C   UNL     1      55.354 -17.169 -12.463  0.00  0.00    -0.052 A 
ATOM      7  N   UNL     1      52.128 -15.650 -12.223  0.00  0.00    -0.342 N 
ATOM      8  C   UNL     1      51.815 -16.848 -11.626  0.00  0.00    +0.015 A 
ATOM      9  C   UNL     1      52.948 -17.634 -11.560  0.00  0.00    +0.020 A 
ENDROOT
BRANCH   9  10
ATOM     10  C   UNL     1      53.033 -18.964 -10.984  0.00  0.00    +0.055 C 
ATOM     11  N   UNL     1      52.892 -20.004 -11.741  0.00  0.00    -0.187 NA
BRANCH  11  12
ATOM     12  N   UNL     1      52.981 -21.222 -11.115  0.00  0.00    -0.203 N 
ATOM     13  C   UNL     1      51.826 -21.980 -10.926  0.00  0.00    +0.263 C 
ATOM     14  O   UNL     1      50.694 -21.646 -11.244  0.00  0.00    -0.268 OA
ATOM     15  H   UNL     1      53.852 -21.557 -10.801  0.00  0.00    +0.000 HD
BRANCH  13  16
ATOM     16  C   UNL     1      52.023 -23.308 -10.268  0.00  0.00    +0.045 A 
ATOM     17  C   UNL     1      50.935 -23.921  -9.619  0.00  0.00    -0.008 A 
ATOM     18  C   UNL     1      51.104 -25.180  -9.043  0.00  0.00    +0.121 A 
ATOM     19  C   UNL     1      52.332 -25.838  -9.105  0.00  0.00    +0.021 A 
ATOM     20  C   UNL     1      53.394 -25.223  -9.757  0.00  0.00    +0.121 A 
ATOM     21  C   UNL     1      53.251 -23.969 -10.338  0.00  0.00    -0.008 A 
BRANCH  18  22
ATOM     22  O   UNL     1      50.085 -25.831  -8.411  0.00  0.00    -0.507 OA
ATOM     23  H   UNL     1      50.168 -26.061  -7.507  0.00  0.00    +0.000 HD
ENDBRANCH  18  22
BRANCH  20  24
ATOM     24  O   UNL     1      54.612 -25.825  -9.867  0.00  0.00    -0.507 OA
ATOM     25  H   UNL     1      54.696 -26.632 -10.336  0.00  0.00    +0.000 HD
ENDBRANCH  20  24
ENDBRANCH  13  16
ENDBRANCH  11  12
ENDBRANCH   9  10
BRANCH   7  26
ATOM     26  C   UNL     1      51.112 -14.665 -12.616  0.00  0.00    +0.048 C 
BRANCH  26  27
ATOM     27  C   UNL     1      49.783 -15.307 -12.932  0.00  0.00    -0.028 A 
ATOM     28  C   UNL     1      48.672 -15.076 -12.108  0.00  0.00    -0.056 A 
ATOM     29  C   UNL     1      47.505 -15.823 -12.267  0.00  0.00    -0.047 A 
ATOM     30  C   UNL     1      47.428 -16.780 -13.274  0.00  0.00    +0.018 A 
ATOM     31  C   UNL     1      48.478 -16.941 -14.176  0.00  0.00    -0.047 A 
ATOM     32  C   UNL     1      49.653 -16.203 -14.006  0.00  0.00    -0.056 A 
ATOM     33 BR   UNL     1      45.923 -17.920 -13.372  0.00  0.00    -0.050 Br
ENDBRANCH  26  27
ENDBRANCH   7  26
TORSDOF 7
ENDMDL
MODEL 2
REMARK VINA RESULT:    -9.541      1.471      2.379
REMARK INTER + INTRA:         -13.642
REMARK INTER:                 -12.921
REMARK INTRA:                  -0.721
REMARK UNBOUND:                -0.755
REMARK  Name = 25a.sdf
REMARK  7 active torsions:
REMARK  status: ('A' for Active; 'I' for Inactive)
REMARK    1  A    between atoms: N_7  and  C_10
REMARK    2  A    between atoms: C_9  and  C_18
REMARK    3  A    between atoms: C_10  and  C_11
REMARK    4  A    between atoms: N_19  and  N_20
REMARK    5  A    between atoms: C_21  and  C_23
REMARK    6  A    between atoms: C_25  and  O_29
REMARK    7  A    between atoms: C_27  and  O_30
REMARK                            x       y       z     vdW  Elec       q    Type
REMARK                         _______ _______ _______ _____ _____    ______ ____
ROOT
ATOM      1  C   UNL     1      56.796 -17.290 -12.994  0.00  0.00    -0.061 A 
ATOM      2  C   UNL     1      56.362 -16.003 -13.288  0.00  0.00    -0.060 A 
ATOM      3  C   UNL     1      54.997 -15.713 -13.425  0.00  0.00    -0.038 A 
ATOM      4  C   UNL     1      54.069 -16.760 -13.283  0.00  0.00    +0.050 A 
ATOM      5  C   UNL     1      54.484 -18.051 -12.923  0.00  0.00    +0.009 A 
ATOM      6  C   UNL     1      55.868 -18.312 -12.785  0.00  0.00    -0.052 A 
ATOM      7  N   UNL     1      52.693 -16.813 -13.451  0.00  0.00    -0.342 N 
ATOM      8  C   UNL     1      52.239 -18.064 -13.110  0.00  0.00    +0.015 A 
ATOM      9  C   UNL     1      53.314 -18.857 -12.759  0.00  0.00    +0.020 A 
ENDROOT
BRANCH   9  10
ATOM     10  C   UNL     1      53.248 -20.241 -12.322  0.00  0.00    +0.055 C 
ATOM     11  N   UNL     1      52.142 -20.713 -11.844  0.00  0.00    -0.187 NA
BRANCH  11  12
ATOM     12  N   UNL     1      52.168 -22.027 -11.449  0.00  0.00    -0.203 N 
ATOM     13  C   UNL     1      51.818 -22.355 -10.141  0.00  0.00    +0.263 C 
ATOM     14  O   UNL     1      51.509 -21.561  -9.265  0.00  0.00    -0.268 OA
ATOM     15  H   UNL     1      52.433 -22.731 -12.084  0.00  0.00    +0.000 HD
BRANCH  13  16
ATOM     16  C   UNL     1      51.842 -23.813  -9.810  0.00  0.00    +0.045 A 
ATOM     17  C   UNL     1      53.051 -24.525  -9.926  0.00  0.00    -0.008 A 
ATOM     18  C   UNL     1      53.085 -25.874  -9.575  0.00  0.00    +0.121 A 
ATOM     19  C   UNL     1      51.943 -26.523  -9.108  0.00  0.00    +0.021 A 
ATOM     20  C   UNL     1      50.759 -25.805  -8.990  0.00  0.00    +0.121 A 
ATOM     21  C   UNL     1      50.699 -24.459  -9.334  0.00  0.00    -0.008 A 
BRANCH  18  22
ATOM     22  O   UNL     1      54.228 -26.614  -9.654  0.00  0.00    -0.507 OA
ATOM     23  H   UNL     1      55.055 -26.187  -9.759  0.00  0.00    +0.000 HD
ENDBRANCH  18  22
BRANCH  20  24
ATOM     24  O   UNL     1      49.615 -26.379  -8.521  0.00  0.00    -0.507 OA
ATOM     25  H   UNL     1      49.625 -27.267  -8.222  0.00  0.00    +0.000 HD
ENDBRANCH  20  24
ENDBRANCH  13  16
ENDBRANCH  11  12
ENDBRANCH   9  10
BRANCH   7  26
ATOM     26  C   UNL     1      51.829 -15.787 -14.051  0.00  0.00    +0.048 C 
BRANCH  26  27
ATOM     27  C   UNL     1      50.659 -15.435 -13.166  0.00  0.00    -0.028 A 
ATOM     28  C   UNL     1      49.432 -16.096 -13.320  0.00  0.00    -0.056 A 
ATOM     29  C   UNL     1      48.292 -15.639 -12.657  0.00  0.00    -0.047 A 
ATOM     30  C   UNL     1      48.381 -14.540 -11.807  0.00  0.00    +0.018 A 
ATOM     31  C   UNL     1      49.614 -13.945 -11.551  0.00  0.00    -0.047 A 
ATOM     32  C   UNL     1      50.752 -14.394 -12.228  0.00  0.00    -0.056 A 
ATOM     33 BR   UNL     1      46.809 -13.806 -11.058  0.00  0.00    -0.050 Br
ENDBRANCH  26  27
ENDBRANCH   7  26
TORSDOF 7
ENDMDL
MODEL 3
REMARK VINA RESULT:    -9.508      5.288      7.276
REMARK INTER + INTRA:         -13.598
REMARK INTER:                 -12.924
REMARK INTRA:                  -0.674
REMARK UNBOUND:                -0.755
REMARK  Name = 25a.sdf
REMARK  7 active torsions:
REMARK  status: ('A' for Active; 'I' for Inactive)
REMARK    1  A    between atoms: N_7  and  C_10
REMARK    2  A    between atoms: C_9  and  C_18
REMARK    3  A    between atoms: C_10  and  C_11
REMARK    4  A    between atoms: N_19  and  N_20
REMARK    5  A    between atoms: C_21  and  C_23
REMARK    6  A    between atoms: C_25  and  O_29
REMARK    7  A    between atoms: C_27  and  O_30
REMARK                            x       y       z     vdW  Elec       q    Type
REMARK                         _______ _______ _______ _____ _____    ______ ____
ROOT
ATOM      1  C   UNL     1      49.427 -14.338 -11.570  0.00  0.00    -0.061 A 
ATOM      2  C   UNL     1      50.542 -13.595 -11.935  0.00  0.00    -0.060 A 
ATOM      3  C   UNL     1      51.586 -14.172 -12.672  0.00  0.00    -0.038 A 
ATOM      4  C   UNL     1      51.497 -15.533 -13.014  0.00  0.00    +0.050 A 
ATOM      5  C   UNL     1      50.350 -16.282 -12.708  0.00  0.00    +0.009 A 
ATOM      6  C   UNL     1      49.309 -15.670 -11.970  0.00  0.00    -0.052 A 
ATOM      7  N   UNL     1      52.386 -16.397 -13.637  0.00  0.00    -0.342 N 
ATOM      8  C   UNL     1      51.786 -17.620 -13.813  0.00  0.00    +0.015 A 
ATOM      9  C   UNL     1      50.517 -17.587 -13.268  0.00  0.00    +0.020 A 
ENDROOT
BRANCH   9  10
ATOM     10  C   UNL     1      49.560 -18.679 -13.266  0.00  0.00    +0.055 C 
ATOM     11  N   UNL     1      48.439 -18.554 -13.902  0.00  0.00    -0.187 NA
BRANCH  11  12
ATOM     12  N   UNL     1      47.590 -19.631 -13.844  0.00  0.00    -0.203 N 
ATOM     13  C   UNL     1      46.216 -19.415 -13.763  0.00  0.00    +0.263 C 
ATOM     14  O   UNL     1      45.668 -18.324 -13.705  0.00  0.00    -0.268 OA
ATOM     15  H   UNL     1      47.949 -20.548 -13.858  0.00  0.00    +0.000 HD
BRANCH  13  16
ATOM     16  C   UNL     1      45.366 -20.645 -13.740  0.00  0.00    +0.045 A 
ATOM     17  C   UNL     1      45.324 -21.472 -14.878  0.00  0.00    -0.008 A 
ATOM     18  C   UNL     1      44.569 -22.643 -14.843  0.00  0.00    +0.121 A 
ATOM     19  C   UNL     1      43.860 -23.006 -13.698  0.00  0.00    +0.021 A 
ATOM     20  C   UNL     1      43.919 -22.184 -12.580  0.00  0.00    +0.121 A 
ATOM     21  C   UNL     1      44.665 -21.011 -12.590  0.00  0.00    -0.008 A 
BRANCH  18  22
ATOM     22  O   UNL     1      44.498 -23.492 -15.909  0.00  0.00    -0.507 OA
ATOM     23  H   UNL     1      43.663 -23.773 -16.228  0.00  0.00    +0.000 HD
ENDBRANCH  18  22
BRANCH  20  24
ATOM     24  O   UNL     1      43.264 -22.495 -11.426  0.00  0.00    -0.507 OA
ATOM     25  H   UNL     1      43.289 -23.371 -11.094  0.00  0.00    +0.000 HD
ENDBRANCH  20  24
ENDBRANCH  13  16
ENDBRANCH  11  12
ENDBRANCH   9  10
BRANCH   7  26
ATOM     26  C   UNL     1      53.804 -16.153 -13.932  0.00  0.00    +0.048 C 
BRANCH  26  27
ATOM     27  C   UNL     1      54.720 -16.972 -13.055  0.00  0.00    -0.028 A 
ATOM     28  C   UNL     1      55.370 -16.379 -11.963  0.00  0.00    -0.056 A 
ATOM     29  C   UNL     1      56.372 -17.065 -11.277  0.00  0.00    -0.047 A 
ATOM     30  C   UNL     1      56.705 -18.363 -11.655  0.00  0.00    +0.018 A 
ATOM     31  C   UNL     1      55.989 -19.010 -12.660  0.00  0.00    -0.047 A 
ATOM     32  C   UNL     1      54.996 -18.316 -13.357  0.00  0.00    -0.056 A 
ATOM     33 BR   UNL     1      58.185 -19.222 -10.853  0.00  0.00    -0.050 Br
ENDBRANCH  26  27
ENDBRANCH   7  26
TORSDOF 7
ENDMDL
