MODEL 1
REMARK VINA RESULT:    -7.215      0.000      0.000
REMARK INTER + INTRA:          -8.256
REMARK INTER:                  -8.058
REMARK INTRA:                  -0.197
REMARK UNBOUND:                -0.197
REMARK  Name = 2.sdf
REMARK  2 active torsions:
REMARK  status: ('A' for Active; 'I' for Inactive)
REMARK    1  A    between atoms: C_9  and  C_10
REMARK    2  A    between atoms: C_11  and  C_12
REMARK                            x       y       z     vdW  Elec       q    Type
REMARK                         _______ _______ _______ _____ _____    ______ ____
ROOT
ATOM      1  C   UNL     1      49.246 -17.039 -14.538  0.00  0.00    -0.061 A 
ATOM      2  C   UNL     1      48.070 -16.867 -13.817  0.00  0.00    -0.060 A 
ATOM      3  C   UNL     1      47.985 -15.912 -12.802  0.00  0.00    -0.038 A 
ATOM      4  C   UNL     1      49.122 -15.138 -12.537  0.00  0.00    +0.047 A 
ATOM      5  C   UNL     1      50.322 -15.277 -13.243  0.00  0.00    +0.007 A 
ATOM      6  C   UNL     1      50.375 -16.257 -14.260  0.00  0.00    -0.052 A 
ATOM      7  N   UNL     1      49.312 -14.152 -11.597  0.00  0.00    -0.360 N 
ATOM      8  C   UNL     1      50.593 -13.671 -11.665  0.00  0.00    +0.010 A 
ATOM      9  C   UNL     1      51.243 -14.332 -12.685  0.00  0.00    +0.000 A 
ATOM     10  H   UNL     1      48.625 -13.838 -10.965  0.00  0.00    +0.000 HD
ENDROOT
BRANCH   9  11
ATOM     11  C   UNL     1      52.611 -14.059 -13.017  0.00  0.00    -0.046 C 
ATOM     12  C   UNL     1      53.639 -14.894 -12.805  0.00  0.00    +0.023 C 
BRANCH  12  13
ATOM     13  C   UNL     1      55.069 -14.698 -13.115  0.00  0.00    +0.330 C 
ATOM     14  O   UNL     1      55.777 -15.794 -13.432  0.00  0.00    -0.478 OA
ATOM     15  O   UNL     1      55.570 -13.584 -13.082  0.00  0.00    -0.246 OA
ENDBRANCH  12  13
ENDBRANCH   9  11
TORSDOF 2
ENDMDL
MODEL 2
REMARK VINA RESULT:    -6.959      3.616      5.530
REMARK INTER + INTRA:          -7.969
REMARK INTER:                  -7.800
REMARK INTRA:                  -0.169
REMARK UNBOUND:                -0.197
REMARK  Name = 2.sdf
REMARK  2 active torsions:
REMARK  status: ('A' for Active; 'I' for Inactive)
REMARK    1  A    between atoms: C_9  and  C_10
REMARK    2  A    between atoms: C_11  and  C_12
REMARK                            x       y       z     vdW  Elec       q    Type
REMARK                         _______ _______ _______ _____ _____    ______ ____
ROOT
ATOM      1  C   UNL     1      54.732 -17.334 -12.871  0.00  0.00    -0.061 A 
ATOM      2  C   UNL     1      55.879 -16.549 -12.920  0.00  0.00    -0.060 A 
ATOM      3  C   UNL     1      55.793 -15.156 -12.935  0.00  0.00    -0.038 A 
ATOM      4  C   UNL     1      54.517 -14.579 -12.901  0.00  0.00    +0.047 A 
ATOM      5  C   UNL     1      53.340 -15.333 -12.847  0.00  0.00    +0.007 A 
ATOM      6  C   UNL     1      53.463 -16.742 -12.838  0.00  0.00    -0.052 A 
ATOM      7  N   UNL     1      54.153 -13.254 -12.921  0.00  0.00    -0.360 N 
ATOM      8  C   UNL     1      52.789 -13.135 -12.899  0.00  0.00    +0.010 A 
ATOM      9  C   UNL     1      52.251 -14.403 -12.836  0.00  0.00    +0.000 A 
ATOM     10  H   UNL     1      54.783 -12.497 -12.946  0.00  0.00    +0.000 HD
ENDROOT
BRANCH   9  11
ATOM     11  C   UNL     1      50.836 -14.627 -12.801  0.00  0.00    -0.046 C 
ATOM     12  C   UNL     1      50.029 -14.319 -11.774  0.00  0.00    +0.023 C 
BRANCH  12  13
ATOM     13  C   UNL     1      48.571 -14.511 -11.652  0.00  0.00    +0.330 C 
ATOM     14  O   UNL     1      48.005 -15.398 -12.487  0.00  0.00    -0.478 OA
ATOM     15  O   UNL     1      47.924 -13.888 -10.825  0.00  0.00    -0.246 OA
ENDBRANCH  12  13
ENDBRANCH   9  11
TORSDOF 2
ENDMDL
MODEL 3
REMARK VINA RESULT:    -6.712      3.541      5.596
REMARK INTER + INTRA:          -7.694
REMARK INTER:                  -7.507
REMARK INTRA:                  -0.188
REMARK UNBOUND:                -0.197
REMARK  Name = 2.sdf
REMARK  2 active torsions:
REMARK  status: ('A' for Active; 'I' for Inactive)
REMARK    1  A    between atoms: C_9  and  C_10
REMARK    2  A    between atoms: C_11  and  C_12
REMARK                            x       y       z     vdW  Elec       q    Type
REMARK                         _______ _______ _______ _____ _____    ______ ____
ROOT
ATOM      1  C   UNL     1      54.813 -18.356 -13.125  0.00  0.00    -0.061 A 
ATOM      2  C   UNL     1      56.163 -18.027 -13.049  0.00  0.00    -0.060 A 
ATOM      3  C   UNL     1      56.572 -16.694 -12.972  0.00  0.00    -0.038 A 
ATOM      4  C   UNL     1      55.579 -15.705 -12.973  0.00  0.00    +0.047 A 
ATOM      5  C   UNL     1      54.213 -15.995 -13.043  0.00  0.00    +0.007 A 
ATOM      6  C   UNL     1      53.833 -17.354 -13.126  0.00  0.00    -0.052 A 
ATOM      7  N   UNL     1      55.705 -14.337 -12.921  0.00  0.00    -0.360 N 
ATOM      8  C   UNL     1      54.472 -13.744 -12.973  0.00  0.00    +0.010 A 
ATOM      9  C   UNL     1      53.521 -14.741 -13.031  0.00  0.00    +0.000 A 
ATOM     10  H   UNL     1      56.561 -13.853 -12.855  0.00  0.00    +0.000 HD
ENDROOT
BRANCH   9  11
ATOM     11  C   UNL     1      52.119 -14.451 -13.097  0.00  0.00    -0.046 C 
ATOM     12  C   UNL     1      51.192 -14.919 -12.247  0.00  0.00    +0.023 C 
BRANCH  12  13
ATOM     13  C   UNL     1      49.737 -14.673 -12.238  0.00  0.00    +0.330 C 
ATOM     14  O   UNL     1      48.989 -15.425 -13.061  0.00  0.00    -0.478 OA
ATOM     15  O   UNL     1      49.250 -13.823 -11.508  0.00  0.00    -0.246 OA
ENDBRANCH  12  13
ENDBRANCH   9  11
TORSDOF 2
ENDMDL
