MODEL 1
REMARK VINA RESULT:    -8.522      0.000      0.000
REMARK INTER + INTRA:         -10.078
REMARK INTER:                  -9.767
REMARK INTRA:                  -0.311
REMARK UNBOUND:                -0.311
REMARK  Name = 4d.sdf
REMARK  3 active torsions:
REMARK  status: ('A' for Active; 'I' for Inactive)
REMARK    1  A    between atoms: C_9  and  C_10
REMARK    2  A    between atoms: C_10  and  O_18
REMARK    3  A    between atoms: C_11  and  C_12
REMARK                            x       y       z     vdW  Elec       q    Type
REMARK                         _______ _______ _______ _____ _____    ______ ____
ROOT
ATOM      1  C   UNL     1      56.409 -16.812 -12.375  0.00  0.00    -0.061 A 
ATOM      2  C   UNL     1      55.943 -15.811 -13.218  0.00  0.00    -0.060 A 
ATOM      3  C   UNL     1      54.574 -15.631 -13.431  0.00  0.00    -0.037 A 
ATOM      4  C   UNL     1      53.671 -16.491 -12.777  0.00  0.00    +0.057 A 
ATOM      5  C   UNL     1      54.124 -17.501 -11.918  0.00  0.00    +0.006 A 
ATOM      6  C   UNL     1      55.512 -17.659 -11.720  0.00  0.00    -0.052 A 
ATOM      7  N   UNL     1      52.277 -16.512 -12.762  0.00  0.00    -0.283 N 
ATOM      8  C   UNL     1      51.882 -17.567 -11.956  0.00  0.00    +0.019 A 
ATOM      9  C   UNL     1      52.982 -18.181 -11.403  0.00  0.00    +0.004 A 
ATOM     10  C   UNL     1      51.394 -15.621 -13.427  0.00  0.00    +0.263 C 
ATOM     11  O   UNL     1      51.801 -15.025 -14.419  0.00  0.00    -0.267 OA
ENDROOT
BRANCH  10  12
ATOM     12  C   UNL     1      49.999 -15.385 -12.969  0.00  0.00    +0.040 A 
ATOM     13  C   UNL     1      49.742 -14.428 -11.976  0.00  0.00    -0.049 A 
ATOM     14  C   UNL     1      48.444 -14.250 -11.499  0.00  0.00    -0.061 A 
ATOM     15  C   UNL     1      47.400 -15.001 -12.033  0.00  0.00    -0.062 A 
ATOM     16  C   UNL     1      47.645 -15.911 -13.064  0.00  0.00    -0.061 A 
ATOM     17  C   UNL     1      48.943 -16.100 -13.541  0.00  0.00    -0.049 A 
ENDBRANCH  10  12
BRANCH   9  18
ATOM     18  C   UNL     1      52.964 -19.330 -10.453  0.00  0.00    +0.071 C 
BRANCH  18  19
ATOM     19  O   UNL     1      52.246 -19.007  -9.269  0.00  0.00    -0.390 OA
ATOM     20  H   UNL     1      51.608 -19.711  -9.075  0.00  0.00    +0.000 HD
ENDBRANCH  18  19
ENDBRANCH   9  18
TORSDOF 3
ENDMDL
MODEL 2
REMARK VINA RESULT:    -8.328      1.744      3.259
REMARK INTER + INTRA:          -9.856
REMARK INTER:                  -9.545
REMARK INTRA:                  -0.311
REMARK UNBOUND:                -0.311
REMARK  Name = 4d.sdf
REMARK  3 active torsions:
REMARK  status: ('A' for Active; 'I' for Inactive)
REMARK    1  A    between atoms: C_9  and  C_10
REMARK    2  A    between atoms: C_10  and  O_18
REMARK    3  A    between atoms: C_11  and  C_12
REMARK                            x       y       z     vdW  Elec       q    Type
REMARK                         _______ _______ _______ _____ _____    ______ ____
ROOT
ATOM      1  C   UNL     1      57.239 -18.227 -13.044  0.00  0.00    -0.061 A 
ATOM      2  C   UNL     1      56.321 -19.236 -12.784  0.00  0.00    -0.060 A 
ATOM      3  C   UNL     1      54.966 -18.947 -12.602  0.00  0.00    -0.037 A 
ATOM      4  C   UNL     1      54.548 -17.604 -12.680  0.00  0.00    +0.057 A 
ATOM      5  C   UNL     1      55.459 -16.574 -12.948  0.00  0.00    +0.006 A 
ATOM      6  C   UNL     1      56.821 -16.897 -13.128  0.00  0.00    -0.052 A 
ATOM      7  N   UNL     1      53.277 -17.036 -12.593  0.00  0.00    -0.283 N 
ATOM      8  C   UNL     1      53.419 -15.666 -12.737  0.00  0.00    +0.019 A 
ATOM      9  C   UNL     1      54.736 -15.347 -12.979  0.00  0.00    +0.004 A 
ATOM     10  C   UNL     1      52.042 -17.712 -12.407  0.00  0.00    +0.263 C 
ATOM     11  O   UNL     1      52.053 -18.816 -11.874  0.00  0.00    -0.267 OA
ENDROOT
BRANCH  10  12
ATOM     12  C   UNL     1      50.740 -17.132 -12.831  0.00  0.00    +0.040 A 
ATOM     13  C   UNL     1      49.946 -16.443 -11.903  0.00  0.00    -0.049 A 
ATOM     14  C   UNL     1      48.695 -15.955 -12.282  0.00  0.00    -0.061 A 
ATOM     15  C   UNL     1      48.253 -16.124 -13.591  0.00  0.00    -0.062 A 
ATOM     16  C   UNL     1      49.069 -16.757 -14.532  0.00  0.00    -0.061 A 
ATOM     17  C   UNL     1      50.317 -17.256 -14.158  0.00  0.00    -0.049 A 
ENDBRANCH  10  12
BRANCH   9  18
ATOM     18  C   UNL     1      55.278 -13.981 -13.224  0.00  0.00    +0.071 C 
BRANCH  18  19
ATOM     19  O   UNL     1      54.906 -13.085 -12.185  0.00  0.00    -0.390 OA
ATOM     20  H   UNL     1      54.820 -12.188 -12.546  0.00  0.00    +0.000 HD
ENDBRANCH  18  19
ENDBRANCH   9  18
TORSDOF 3
ENDMDL
MODEL 3
REMARK VINA RESULT:    -7.928      2.298      6.547
REMARK INTER + INTRA:          -9.397
REMARK INTER:                  -9.089
REMARK INTRA:                  -0.308
REMARK UNBOUND:                -0.311
REMARK  Name = 4d.sdf
REMARK  3 active torsions:
REMARK  status: ('A' for Active; 'I' for Inactive)
REMARK    1  A    between atoms: C_9  and  C_10
REMARK    2  A    between atoms: C_10  and  O_18
REMARK    3  A    between atoms: C_11  and  C_12
REMARK                            x       y       z     vdW  Elec       q    Type
REMARK                         _______ _______ _______ _____ _____    ______ ____
ROOT
ATOM      1  C   UNL     1      49.645 -16.074 -13.729  0.00  0.00    -0.061 A 
ATOM      2  C   UNL     1      50.039 -17.392 -13.918  0.00  0.00    -0.060 A 
ATOM      3  C   UNL     1      51.381 -17.765 -13.802  0.00  0.00    -0.037 A 
ATOM      4  C   UNL     1      52.332 -16.773 -13.494  0.00  0.00    +0.057 A 
ATOM      5  C   UNL     1      51.951 -15.440 -13.293  0.00  0.00    +0.006 A 
ATOM      6  C   UNL     1      50.589 -15.092 -13.416  0.00  0.00    -0.052 A 
ATOM      7  N   UNL     1      53.706 -16.862 -13.270  0.00  0.00    -0.283 N 
ATOM      8  C   UNL     1      54.171 -15.584 -13.002  0.00  0.00    +0.019 A 
ATOM      9  C   UNL     1      53.124 -14.691 -12.985  0.00  0.00    +0.004 A 
ATOM     10  C   UNL     1      54.508 -18.033 -13.289  0.00  0.00    +0.263 C 
ATOM     11  O   UNL     1      54.118 -19.000 -13.935  0.00  0.00    -0.267 OA
ENDROOT
BRANCH  10  12
ATOM     12  C   UNL     1      55.800 -18.131 -12.559  0.00  0.00    +0.040 A 
ATOM     13  C   UNL     1      57.004 -17.867 -13.228  0.00  0.00    -0.049 A 
ATOM     14  C   UNL     1      58.220 -18.021 -12.564  0.00  0.00    -0.061 A 
ATOM     15  C   UNL     1      58.235 -18.404 -11.225  0.00  0.00    -0.062 A 
ATOM     16  C   UNL     1      57.035 -18.608 -10.540  0.00  0.00    -0.061 A 
ATOM     17  C   UNL     1      55.814 -18.465 -11.201  0.00  0.00    -0.049 A 
ENDBRANCH  10  12
BRANCH   9  18
ATOM     18  C   UNL     1      53.218 -13.232 -12.697  0.00  0.00    +0.071 C 
BRANCH  18  19
ATOM     19  O   UNL     1      54.528 -12.874 -12.275  0.00  0.00    -0.390 OA
ATOM     20  H   UNL     1      54.558 -12.842 -11.306  0.00  0.00    +0.000 HD
ENDBRANCH  18  19
ENDBRANCH   9  18
TORSDOF 3
ENDMDL
