MODEL 1
REMARK VINA RESULT:    -8.635      0.000      0.000
REMARK INTER + INTRA:         -11.946
REMARK INTER:                 -11.160
REMARK INTRA:                  -0.787
REMARK UNBOUND:                -0.787
REMARK  Name = 5c.sdf
REMARK  6 active torsions:
REMARK  status: ('A' for Active; 'I' for Inactive)
REMARK    1  A    between atoms: N_7  and  C_12
REMARK    2  A    between atoms: C_9  and  C_10
REMARK    3  A    between atoms: C_11  and  C_20
REMARK    4  A    between atoms: C_12  and  C_13
REMARK    5  A    between atoms: C_20  and  O_21
REMARK    6  A    between atoms: O_21  and  C_23
REMARK                            x       y       z     vdW  Elec       q    Type
REMARK                         _______ _______ _______ _____ _____    ______ ____
ROOT
ATOM      1  C   UNL     1      56.333 -16.818 -12.744  0.00  0.00    -0.061 A 
ATOM      2  C   UNL     1      55.763 -15.596 -13.077  0.00  0.00    -0.060 A 
ATOM      3  C   UNL     1      54.416 -15.508 -13.444  0.00  0.00    -0.038 A 
ATOM      4  C   UNL     1      53.649 -16.686 -13.463  0.00  0.00    +0.050 A 
ATOM      5  C   UNL     1      54.193 -17.923 -13.093  0.00  0.00    +0.007 A 
ATOM      6  C   UNL     1      55.559 -17.981 -12.741  0.00  0.00    -0.052 A 
ATOM      7  N   UNL     1      52.330 -16.915 -13.814  0.00  0.00    -0.342 N 
ATOM      8  C   UNL     1      52.019 -18.244 -13.620  0.00  0.00    +0.013 A 
ATOM      9  C   UNL     1      53.145 -18.894 -13.165  0.00  0.00    +0.000 A 
ENDROOT
BRANCH   9  10
ATOM     10  C   UNL     1      53.252 -20.284 -12.825  0.00  0.00    -0.046 C 
ATOM     11  C   UNL     1      53.003 -20.815 -11.617  0.00  0.00    +0.023 C 
BRANCH  11  12
ATOM     12  C   UNL     1      53.128 -22.245 -11.267  0.00  0.00    +0.332 C 
ATOM     13  O   UNL     1      54.104 -22.901 -11.607  0.00  0.00    -0.246 OA
BRANCH  12  14
ATOM     14  O   UNL     1      52.075 -22.708 -10.553  0.00  0.00    -0.465 OA
ATOM     15  C   UNL     1      52.251 -24.043 -10.073  0.00  0.00    +0.082 C 
ENDBRANCH  12  14
ENDBRANCH  11  12
ENDBRANCH   9  10
BRANCH   7  16
ATOM     16  C   UNL     1      51.405 -15.933 -14.378  0.00  0.00    +0.048 C 
BRANCH  16  17
ATOM     17  C   UNL     1      50.409 -15.463 -13.346  0.00  0.00    -0.028 A 
ATOM     18  C   UNL     1      49.117 -16.008 -13.303  0.00  0.00    -0.055 A 
ATOM     19  C   UNL     1      48.147 -15.467 -12.457  0.00  0.00    -0.043 A 
ATOM     20  C   UNL     1      48.468 -14.390 -11.635  0.00  0.00    +0.041 A 
ATOM     21  C   UNL     1      49.764 -13.881 -11.616  0.00  0.00    -0.043 A 
ATOM     22  C   UNL     1      50.733 -14.417 -12.466  0.00  0.00    -0.055 A 
ATOM     23 CL   UNL     1      47.250 -13.665 -10.661  0.00  0.00    -0.084 Cl
ENDBRANCH  16  17
ENDBRANCH   7  16
TORSDOF 5
ENDMDL
MODEL 2
REMARK VINA RESULT:    -8.422      2.443      4.177
REMARK INTER + INTRA:         -11.670
REMARK INTER:                 -10.947
REMARK INTRA:                  -0.723
REMARK UNBOUND:                -0.787
REMARK  Name = 5c.sdf
REMARK  6 active torsions:
REMARK  status: ('A' for Active; 'I' for Inactive)
REMARK    1  A    between atoms: N_7  and  C_12
REMARK    2  A    between atoms: C_9  and  C_10
REMARK    3  A    between atoms: C_11  and  C_20
REMARK    4  A    between atoms: C_12  and  C_13
REMARK    5  A    between atoms: C_20  and  O_21
REMARK    6  A    between atoms: O_21  and  C_23
REMARK                            x       y       z     vdW  Elec       q    Type
REMARK                         _______ _______ _______ _____ _____    ______ ____
ROOT
ATOM      1  C   UNL     1      51.317 -20.880 -12.379  0.00  0.00    -0.061 A 
ATOM      2  C   UNL     1      50.183 -20.296 -12.929  0.00  0.00    -0.060 A 
ATOM      3  C   UNL     1      50.235 -19.019 -13.495  0.00  0.00    -0.038 A 
ATOM      4  C   UNL     1      51.466 -18.339 -13.502  0.00  0.00    +0.050 A 
ATOM      5  C   UNL     1      52.631 -18.924 -12.988  0.00  0.00    +0.007 A 
ATOM      6  C   UNL     1      52.543 -20.210 -12.410  0.00  0.00    -0.052 A 
ATOM      7  N   UNL     1      51.813 -17.076 -13.947  0.00  0.00    -0.342 N 
ATOM      8  C   UNL     1      53.166 -16.876 -13.780  0.00  0.00    +0.013 A 
ATOM      9  C   UNL     1      53.705 -18.003 -13.199  0.00  0.00    +0.000 A 
ENDROOT
BRANCH   9  10
ATOM     10  C   UNL     1      55.084 -18.218 -12.868  0.00  0.00    -0.046 C 
ATOM     11  C   UNL     1      56.041 -17.276 -12.855  0.00  0.00    +0.023 C 
BRANCH  11  12
ATOM     12  C   UNL     1      57.464 -17.504 -12.528  0.00  0.00    +0.332 C 
ATOM     13  O   UNL     1      58.288 -17.745 -13.400  0.00  0.00    -0.246 OA
BRANCH  12  14
ATOM     14  O   UNL     1      57.721 -17.412 -11.201  0.00  0.00    -0.465 OA
ATOM     15  C   UNL     1      58.147 -18.645 -10.614  0.00  0.00    +0.082 C 
ENDBRANCH  12  14
ENDBRANCH  11  12
ENDBRANCH   9  10
BRANCH   7  16
ATOM     16  C   UNL     1      50.892 -16.057 -14.453  0.00  0.00    +0.048 C 
BRANCH  16  17
ATOM     17  C   UNL     1      50.003 -15.527 -13.356  0.00  0.00    -0.028 A 
ATOM     18  C   UNL     1      48.673 -15.959 -13.246  0.00  0.00    -0.055 A 
ATOM     19  C   UNL     1      47.805 -15.355 -12.334  0.00  0.00    -0.043 A 
ATOM     20  C   UNL     1      48.266 -14.330 -11.513  0.00  0.00    +0.041 A 
ATOM     21  C   UNL     1      49.602 -13.937 -11.561  0.00  0.00    -0.043 A 
ATOM     22  C   UNL     1      50.469 -14.535 -12.477  0.00  0.00    -0.055 A 
ATOM     23 CL   UNL     1      47.175 -13.525 -10.455  0.00  0.00    -0.084 Cl
ENDBRANCH  16  17
ENDBRANCH   7  16
TORSDOF 5
ENDMDL
MODEL 3
REMARK VINA RESULT:    -8.176      3.778      6.301
REMARK INTER + INTRA:         -11.353
REMARK INTER:                 -10.553
REMARK INTRA:                  -0.800
REMARK UNBOUND:                -0.787
REMARK  Name = 5c.sdf
REMARK  6 active torsions:
REMARK  status: ('A' for Active; 'I' for Inactive)
REMARK    1  A    between atoms: N_7  and  C_12
REMARK    2  A    between atoms: C_9  and  C_10
REMARK    3  A    between atoms: C_11  and  C_20
REMARK    4  A    between atoms: C_12  and  C_13
REMARK    5  A    between atoms: C_20  and  O_21
REMARK    6  A    between atoms: O_21  and  C_23
REMARK                            x       y       z     vdW  Elec       q    Type
REMARK                         _______ _______ _______ _____ _____    ______ ____
ROOT
ATOM      1  C   UNL     1      48.746 -14.334 -11.593  0.00  0.00    -0.061 A 
ATOM      2  C   UNL     1      50.043 -13.835 -11.570  0.00  0.00    -0.060 A 
ATOM      3  C   UNL     1      51.083 -14.506 -12.220  0.00  0.00    -0.038 A 
ATOM      4  C   UNL     1      50.785 -15.698 -12.905  0.00  0.00    +0.050 A 
ATOM      5  C   UNL     1      49.479 -16.199 -12.975  0.00  0.00    +0.007 A 
ATOM      6  C   UNL     1      48.453 -15.506 -12.296  0.00  0.00    -0.052 A 
ATOM      7  N   UNL     1      51.594 -16.585 -13.594  0.00  0.00    -0.342 N 
ATOM      8  C   UNL     1      50.826 -17.591 -14.139  0.00  0.00    +0.013 A 
ATOM      9  C   UNL     1      49.512 -17.378 -13.784  0.00  0.00    +0.000 A 
ENDROOT
BRANCH   9  10
ATOM     10  C   UNL     1      48.384 -18.184 -14.156  0.00  0.00    -0.046 C 
ATOM     11  C   UNL     1      48.330 -19.525 -14.103  0.00  0.00    +0.023 C 
BRANCH  11  12
ATOM     12  C   UNL     1      47.172 -20.352 -14.501  0.00  0.00    +0.332 C 
ATOM     13  O   UNL     1      46.984 -20.664 -15.669  0.00  0.00    -0.246 OA
BRANCH  12  14
ATOM     14  O   UNL     1      46.390 -20.703 -13.453  0.00  0.00    -0.465 OA
ATOM     15  C   UNL     1      45.000 -20.437 -13.662  0.00  0.00    +0.082 C 
ENDBRANCH  12  14
ENDBRANCH  11  12
ENDBRANCH   9  10
BRANCH   7  16
ATOM     16  C   UNL     1      53.053 -16.529 -13.685  0.00  0.00    +0.048 C 
BRANCH  16  17
ATOM     17  C   UNL     1      53.695 -17.635 -12.884  0.00  0.00    -0.028 A 
ATOM     18  C   UNL     1      53.333 -17.847 -11.545  0.00  0.00    -0.055 A 
ATOM     19  C   UNL     1      54.034 -18.762 -10.757  0.00  0.00    -0.043 A 
ATOM     20  C   UNL     1      55.089 -19.484 -11.308  0.00  0.00    +0.041 A 
ATOM     21  C   UNL     1      55.417 -19.336 -12.654  0.00  0.00    -0.043 A 
ATOM     22  C   UNL     1      54.720 -18.417 -13.441  0.00  0.00    -0.055 A 
ATOM     23 CL   UNL     1      56.012 -20.542 -10.315  0.00  0.00    -0.084 Cl
ENDBRANCH  16  17
ENDBRANCH   7  16
TORSDOF 5
ENDMDL
