MODEL 1
REMARK VINA RESULT:    -8.011      0.000      0.000
REMARK INTER + INTRA:         -11.294
REMARK INTER:                 -10.352
REMARK INTRA:                  -0.941
REMARK UNBOUND:                -0.941
REMARK  Name = 7a.sdf
REMARK  6 active torsions:
REMARK  status: ('A' for Active; 'I' for Inactive)
REMARK    1  A    between atoms: N_7  and  C_12
REMARK    2  A    between atoms: C_9  and  C_10
REMARK    3  A    between atoms: C_10  and  C_11
REMARK    4  A    between atoms: C_11  and  O_21
REMARK    5  A    between atoms: C_12  and  C_13
REMARK    6  A    between atoms: O_21  and  C_22
REMARK                            x       y       z     vdW  Elec       q    Type
REMARK                         _______ _______ _______ _____ _____    ______ ____
ROOT
ATOM      1  C   UNL     1      54.160 -13.332 -12.782  0.00  0.00    -0.061 A 
ATOM      2  C   UNL     1      55.238 -14.168 -13.053  0.00  0.00    -0.060 A 
ATOM      3  C   UNL     1      55.037 -15.503 -13.441  0.00  0.00    -0.038 A 
ATOM      4  C   UNL     1      53.719 -15.990 -13.519  0.00  0.00    +0.050 A 
ATOM      5  C   UNL     1      52.621 -15.141 -13.308  0.00  0.00    +0.004 A 
ATOM      6  C   UNL     1      52.854 -13.800 -12.932  0.00  0.00    -0.052 A 
ATOM      7  N   UNL     1      53.202 -17.254 -13.765  0.00  0.00    -0.342 N 
ATOM      8  C   UNL     1      51.830 -17.186 -13.824  0.00  0.00    +0.010 A 
ATOM      9  C   UNL     1      51.430 -15.891 -13.563  0.00  0.00    -0.012 A 
ENDROOT
BRANCH   9  10
ATOM     10  C   UNL     1      50.020 -15.385 -13.562  0.00  0.00    +0.072 C 
BRANCH  10  11
ATOM     11  C   UNL     1      49.480 -15.068 -12.182  0.00  0.00    +0.311 C 
ATOM     12  O   UNL     1      49.664 -14.028 -11.554  0.00  0.00    -0.250 OA
BRANCH  11  13
ATOM     13  O   UNL     1      48.751 -16.126 -11.719  0.00  0.00    -0.468 OA
ATOM     14  C   UNL     1      47.655 -16.481 -12.569  0.00  0.00    +0.082 C 
ENDBRANCH  11  13
ENDBRANCH  10  11
ENDBRANCH   9  10
BRANCH   7  15
ATOM     15  C   UNL     1      53.928 -18.527 -13.821  0.00  0.00    +0.048 C 
BRANCH  15  16
ATOM     16  C   UNL     1      53.522 -19.465 -12.708  0.00  0.00    -0.028 A 
ATOM     17  C   UNL     1      52.919 -20.692 -13.012  0.00  0.00    -0.056 A 
ATOM     18  C   UNL     1      52.346 -21.468 -12.005  0.00  0.00    -0.047 A 
ATOM     19  C   UNL     1      52.407 -21.037 -10.682  0.00  0.00    +0.018 A 
ATOM     20  C   UNL     1      53.103 -19.878 -10.348  0.00  0.00    -0.047 A 
ATOM     21  C   UNL     1      53.663 -19.094 -11.361  0.00  0.00    -0.056 A 
ATOM     22 BR   UNL     1      51.468 -21.987  -9.344  0.00  0.00    -0.050 Br
ENDBRANCH  15  16
ENDBRANCH   7  15
TORSDOF 5
ENDMDL
MODEL 2
REMARK VINA RESULT:    -7.906      3.098      5.592
REMARK INTER + INTRA:         -11.158
REMARK INTER:                 -10.356
REMARK INTRA:                  -0.802
REMARK UNBOUND:                -0.941
REMARK  Name = 7a.sdf
REMARK  6 active torsions:
REMARK  status: ('A' for Active; 'I' for Inactive)
REMARK    1  A    between atoms: N_7  and  C_12
REMARK    2  A    between atoms: C_9  and  C_10
REMARK    3  A    between atoms: C_10  and  C_11
REMARK    4  A    between atoms: C_11  and  O_21
REMARK    5  A    between atoms: C_12  and  C_13
REMARK    6  A    between atoms: O_21  and  C_22
REMARK                            x       y       z     vdW  Elec       q    Type
REMARK                         _______ _______ _______ _____ _____    ______ ____
ROOT
ATOM      1  C   UNL     1      56.202 -16.631 -13.027  0.00  0.00    -0.061 A 
ATOM      2  C   UNL     1      55.553 -15.414 -13.212  0.00  0.00    -0.060 A 
ATOM      3  C   UNL     1      54.169 -15.361 -13.438  0.00  0.00    -0.038 A 
ATOM      4  C   UNL     1      53.451 -16.570 -13.508  0.00  0.00    +0.050 A 
ATOM      5  C   UNL     1      54.081 -17.799 -13.261  0.00  0.00    +0.004 A 
ATOM      6  C   UNL     1      55.473 -17.820 -13.023  0.00  0.00    -0.052 A 
ATOM      7  N   UNL     1      52.127 -16.855 -13.813  0.00  0.00    -0.342 N 
ATOM      8  C   UNL     1      51.899 -18.201 -13.651  0.00  0.00    +0.010 A 
ATOM      9  C   UNL     1      53.080 -18.821 -13.294  0.00  0.00    -0.012 A 
ENDROOT
BRANCH   9  10
ATOM     10  C   UNL     1      53.257 -20.278 -12.992  0.00  0.00    +0.072 C 
BRANCH  10  11
ATOM     11  C   UNL     1      53.347 -20.594 -11.513  0.00  0.00    +0.311 C 
ATOM     12  O   UNL     1      53.202 -19.794 -10.592  0.00  0.00    -0.250 OA
BRANCH  11  13
ATOM     13  O   UNL     1      53.626 -21.920 -11.343  0.00  0.00    -0.468 OA
ATOM     14  C   UNL     1      52.497 -22.692 -10.916  0.00  0.00    +0.082 C 
ENDBRANCH  11  13
ENDBRANCH  10  11
ENDBRANCH   9  10
BRANCH   7  15
ATOM     15  C   UNL     1      51.115 -15.948 -14.362  0.00  0.00    +0.048 C 
BRANCH  15  16
ATOM     16  C   UNL     1      50.091 -15.541 -13.328  0.00  0.00    -0.028 A 
ATOM     17  C   UNL     1      48.811 -16.109 -13.350  0.00  0.00    -0.056 A 
ATOM     18  C   UNL     1      47.794 -15.593 -12.547  0.00  0.00    -0.047 A 
ATOM     19  C   UNL     1      48.064 -14.529 -11.690  0.00  0.00    +0.018 A 
ATOM     20  C   UNL     1      49.359 -14.029 -11.571  0.00  0.00    -0.047 A 
ATOM     21  C   UNL     1      50.372 -14.537 -12.388  0.00  0.00    -0.056 A 
ATOM     22 BR   UNL     1      46.648 -13.706 -10.745  0.00  0.00    -0.050 Br
ENDBRANCH  15  16
ENDBRANCH   7  15
TORSDOF 5
ENDMDL
MODEL 3
REMARK VINA RESULT:    -7.841      2.396      4.010
REMARK INTER + INTRA:         -11.074
REMARK INTER:                 -10.686
REMARK INTRA:                  -0.388
REMARK UNBOUND:                -0.941
REMARK  Name = 7a.sdf
REMARK  6 active torsions:
REMARK  status: ('A' for Active; 'I' for Inactive)
REMARK    1  A    between atoms: N_7  and  C_12
REMARK    2  A    between atoms: C_9  and  C_10
REMARK    3  A    between atoms: C_10  and  C_11
REMARK    4  A    between atoms: C_11  and  O_21
REMARK    5  A    between atoms: C_12  and  C_13
REMARK    6  A    between atoms: O_21  and  C_22
REMARK                            x       y       z     vdW  Elec       q    Type
REMARK                         _______ _______ _______ _____ _____    ______ ____
ROOT
ATOM      1  C   UNL     1      50.368 -13.933 -11.955  0.00  0.00    -0.061 A 
ATOM      2  C   UNL     1      49.473 -14.967 -11.707  0.00  0.00    -0.060 A 
ATOM      3  C   UNL     1      49.767 -16.286 -12.088  0.00  0.00    -0.038 A 
ATOM      4  C   UNL     1      50.978 -16.537 -12.760  0.00  0.00    +0.050 A 
ATOM      5  C   UNL     1      51.918 -15.515 -12.963  0.00  0.00    +0.004 A 
ATOM      6  C   UNL     1      51.599 -14.201 -12.556  0.00  0.00    -0.052 A 
ATOM      7  N   UNL     1      51.503 -17.681 -13.345  0.00  0.00    -0.342 N 
ATOM      8  C   UNL     1      52.776 -17.423 -13.797  0.00  0.00    +0.010 A 
ATOM      9  C   UNL     1      53.078 -16.096 -13.565  0.00  0.00    -0.012 A 
ENDROOT
BRANCH   9  10
ATOM     10  C   UNL     1      54.377 -15.418 -13.879  0.00  0.00    +0.072 C 
BRANCH  10  11
ATOM     11  C   UNL     1      55.151 -14.974 -12.654  0.00  0.00    +0.311 C 
ATOM     12  O   UNL     1      55.281 -13.818 -12.259  0.00  0.00    -0.250 OA
BRANCH  11  13
ATOM     13  O   UNL     1      55.705 -16.062 -12.042  0.00  0.00    -0.468 OA
ATOM     14  C   UNL     1      56.594 -16.803 -12.885  0.00  0.00    +0.082 C 
ENDBRANCH  11  13
ENDBRANCH  10  11
ENDBRANCH   9  10
BRANCH   7  15
ATOM     15  C   UNL     1      50.821 -18.953 -13.606  0.00  0.00    +0.048 C 
BRANCH  15  16
ATOM     16  C   UNL     1      51.496 -20.115 -12.914  0.00  0.00    -0.028 A 
ATOM     17  C   UNL     1      50.792 -20.869 -11.967  0.00  0.00    -0.056 A 
ATOM     18  C   UNL     1      51.458 -21.799 -11.167  0.00  0.00    -0.047 A 
ATOM     19  C   UNL     1      52.824 -22.005 -11.340  0.00  0.00    +0.018 A 
ATOM     20  C   UNL     1      53.515 -21.349 -12.355  0.00  0.00    -0.047 A 
ATOM     21  C   UNL     1      52.851 -20.406 -13.143  0.00  0.00    -0.056 A 
ATOM     22 BR   UNL     1      53.760 -23.121 -10.134  0.00  0.00    -0.050 Br
ENDBRANCH  15  16
ENDBRANCH   7  15
TORSDOF 5
ENDMDL
