MODEL 1
REMARK VINA RESULT:    -8.179      0.000      0.000
REMARK INTER + INTRA:          -9.967
REMARK INTER:                  -9.614
REMARK INTRA:                  -0.353
REMARK UNBOUND:                -0.353
REMARK  Name = 8.sdf
REMARK  3 active torsions:
REMARK  status: ('A' for Active; 'I' for Inactive)
REMARK    1  A    between atoms: C_9  and  C_10
REMARK    2  A    between atoms: N_11  and  N_12
REMARK    3  A    between atoms: C_13  and  C_15
REMARK                            x       y       z     vdW  Elec       q    Type
REMARK                         _______ _______ _______ _____ _____    ______ ____
ROOT
ATOM      1  C   UNL     1      52.775 -18.128 -13.491  0.00  0.00    +0.055 C 
ATOM      2  N   UNL     1      53.662 -18.299 -12.567  0.00  0.00    -0.187 NA
ENDROOT
BRANCH   1  11
ATOM      3  C   UNL     1      51.128 -13.952 -12.083  0.00  0.00    -0.061 A 
ATOM      4  C   UNL     1      49.757 -13.990 -11.842  0.00  0.00    -0.060 A 
ATOM      5  C   UNL     1      49.032 -15.173 -12.010  0.00  0.00    -0.038 A 
ATOM      6  C   UNL     1      49.732 -16.309 -12.434  0.00  0.00    +0.047 A 
ATOM      7  C   UNL     1      51.106 -16.306 -12.689  0.00  0.00    +0.008 A 
ATOM      8  C   UNL     1      51.814 -15.100 -12.503  0.00  0.00    -0.052 A 
ATOM      9  N   UNL     1      49.274 -17.582 -12.681  0.00  0.00    -0.360 N 
ATOM     10  C   UNL     1      50.304 -18.379 -13.089  0.00  0.00    +0.011 A 
ATOM     11  C   UNL     1      51.467 -17.629 -13.108  0.00  0.00    +0.020 A 
ATOM     12  H   UNL     1      48.340 -17.875 -12.577  0.00  0.00    +0.000 HD
ENDBRANCH   1  11
BRANCH   2  13
ATOM     13  N   UNL     1      54.887 -18.776 -12.938  0.00  0.00    -0.203 N 
ATOM     14  C   UNL     1      56.016 -18.110 -12.477  0.00  0.00    +0.263 C 
ATOM     15  O   UNL     1      55.997 -17.124 -11.743  0.00  0.00    -0.268 OA
ATOM     16  H   UNL     1      54.968 -19.570 -13.515  0.00  0.00    +0.000 HD
BRANCH  14  17
ATOM     17  C   UNL     1      57.339 -18.657 -12.893  0.00  0.00    +0.038 A 
ATOM     18  C   UNL     1      58.455 -17.844 -13.122  0.00  0.00    -0.049 A 
ATOM     19  C   UNL     1      59.685 -18.424 -13.462  0.00  0.00    -0.047 A 
ATOM     20  C   UNL     1      59.798 -19.810 -13.568  0.00  0.00    +0.018 A 
ATOM     21  C   UNL     1      58.695 -20.629 -13.336  0.00  0.00    -0.047 A 
ATOM     22  C   UNL     1      57.469 -20.052 -12.994  0.00  0.00    -0.049 A 
ATOM     23 BR   UNL     1      61.464 -20.586 -14.006  0.00  0.00    -0.050 Br
ENDBRANCH  14  17
ENDBRANCH   2  13
TORSDOF 3
ENDMDL
MODEL 2
REMARK VINA RESULT:    -7.810      4.746      6.160
REMARK INTER + INTRA:          -9.533
REMARK INTER:                  -9.205
REMARK INTRA:                  -0.328
REMARK UNBOUND:                -0.353
REMARK  Name = 8.sdf
REMARK  3 active torsions:
REMARK  status: ('A' for Active; 'I' for Inactive)
REMARK    1  A    between atoms: C_9  and  C_10
REMARK    2  A    between atoms: N_11  and  N_12
REMARK    3  A    between atoms: C_13  and  C_15
REMARK                            x       y       z     vdW  Elec       q    Type
REMARK                         _______ _______ _______ _____ _____    ______ ____
ROOT
ATOM      1  C   UNL     1      51.663 -17.603 -11.397  0.00  0.00    +0.055 C 
ATOM      2  N   UNL     1      51.850 -18.606 -12.190  0.00  0.00    -0.187 NA
ENDROOT
BRANCH   1  11
ATOM      3  C   UNL     1      55.527 -15.435 -12.981  0.00  0.00    -0.061 A 
ATOM      4  C   UNL     1      55.265 -14.121 -13.360  0.00  0.00    -0.060 A 
ATOM      5  C   UNL     1      53.982 -13.582 -13.239  0.00  0.00    -0.038 A 
ATOM      6  C   UNL     1      52.974 -14.412 -12.733  0.00  0.00    +0.047 A 
ATOM      7  C   UNL     1      53.199 -15.735 -12.346  0.00  0.00    +0.008 A 
ATOM      8  C   UNL     1      54.507 -16.251 -12.472  0.00  0.00    -0.052 A 
ATOM      9  N   UNL     1      51.642 -14.145 -12.517  0.00  0.00    -0.360 N 
ATOM     10  C   UNL     1      51.018 -15.252 -12.018  0.00  0.00    +0.011 A 
ATOM     11  C   UNL     1      51.949 -16.269 -11.892  0.00  0.00    +0.020 A 
ATOM     12  H   UNL     1      51.203 -13.282 -12.695  0.00  0.00    +0.000 HD
ENDBRANCH   1  11
BRANCH   2  13
ATOM     13  N   UNL     1      51.585 -19.857 -11.712  0.00  0.00    -0.203 N 
ATOM     14  C   UNL     1      52.652 -20.625 -11.261  0.00  0.00    +0.263 C 
ATOM     15  O   UNL     1      53.824 -20.256 -11.246  0.00  0.00    -0.268 OA
ATOM     16  H   UNL     1      50.665 -20.205 -11.687  0.00  0.00    +0.000 HD
BRANCH  14  17
ATOM     17  C   UNL     1      52.332 -21.984 -10.739  0.00  0.00    +0.038 A 
ATOM     18  C   UNL     1      53.291 -22.999 -10.634  0.00  0.00    -0.049 A 
ATOM     19  C   UNL     1      52.938 -24.240 -10.088  0.00  0.00    -0.047 A 
ATOM     20  C   UNL     1      51.635 -24.463  -9.645  0.00  0.00    +0.018 A 
ATOM     21  C   UNL     1      50.674 -23.459  -9.739  0.00  0.00    -0.047 A 
ATOM     22  C   UNL     1      51.026 -22.220 -10.281  0.00  0.00    -0.049 A 
ATOM     23 BR   UNL     1      51.172 -26.133  -8.891  0.00  0.00    -0.050 Br
ENDBRANCH  14  17
ENDBRANCH   2  13
TORSDOF 3
ENDMDL
MODEL 3
REMARK VINA RESULT:    -7.711      4.560      5.757
REMARK INTER + INTRA:          -9.417
REMARK INTER:                  -9.373
REMARK INTRA:                  -0.044
REMARK UNBOUND:                -0.353
REMARK  Name = 8.sdf
REMARK  3 active torsions:
REMARK  status: ('A' for Active; 'I' for Inactive)
REMARK    1  A    between atoms: C_9  and  C_10
REMARK    2  A    between atoms: N_11  and  N_12
REMARK    3  A    between atoms: C_13  and  C_15
REMARK                            x       y       z     vdW  Elec       q    Type
REMARK                         _______ _______ _______ _____ _____    ______ ____
ROOT
ATOM      1  C   UNL     1      54.461 -18.240 -11.797  0.00  0.00    +0.055 C 
ATOM      2  N   UNL     1      53.359 -18.766 -11.374  0.00  0.00    -0.187 NA
ENDROOT
BRANCH   1  11
ATOM      3  C   UNL     1      51.205 -14.849 -11.974  0.00  0.00    -0.061 A 
ATOM      4  C   UNL     1      51.673 -13.716 -12.633  0.00  0.00    -0.060 A 
ATOM      5  C   UNL     1      52.964 -13.677 -13.163  0.00  0.00    -0.038 A 
ATOM      6  C   UNL     1      53.768 -14.811 -12.999  0.00  0.00    +0.047 A 
ATOM      7  C   UNL     1      53.334 -15.964 -12.340  0.00  0.00    +0.008 A 
ATOM      8  C   UNL     1      52.021 -15.978 -11.822  0.00  0.00    -0.052 A 
ATOM      9  N   UNL     1      55.061 -15.039 -13.410  0.00  0.00    -0.360 N 
ATOM     10  C   UNL     1      55.460 -16.287 -13.028  0.00  0.00    +0.011 A 
ATOM     11  C   UNL     1      54.417 -16.903 -12.359  0.00  0.00    +0.020 A 
ATOM     12  H   UNL     1      55.616 -14.396 -13.908  0.00  0.00    +0.000 HD
ENDBRANCH   1  11
BRANCH   2  13
ATOM     13  N   UNL     1      53.410 -20.027 -10.854  0.00  0.00    -0.203 N 
ATOM     14  C   UNL     1      52.910 -21.073 -11.622  0.00  0.00    +0.263 C 
ATOM     15  O   UNL     1      52.435 -20.950 -12.748  0.00  0.00    -0.268 OA
ATOM     16  H   UNL     1      53.790 -20.192  -9.961  0.00  0.00    +0.000 HD
BRANCH  14  17
ATOM     17  C   UNL     1      52.985 -22.439 -11.031  0.00  0.00    +0.038 A 
ATOM     18  C   UNL     1      54.146 -23.220 -11.077  0.00  0.00    -0.049 A 
ATOM     19  C   UNL     1      54.168 -24.477 -10.457  0.00  0.00    -0.047 A 
ATOM     20  C   UNL     1      53.037 -24.948  -9.792  0.00  0.00    +0.018 A 
ATOM     21  C   UNL     1      51.878 -24.176  -9.734  0.00  0.00    -0.047 A 
ATOM     22  C   UNL     1      51.856 -22.921 -10.349  0.00  0.00    -0.049 A 
ATOM     23 BR   UNL     1      53.081 -26.634  -8.942  0.00  0.00    -0.050 Br
ENDBRANCH  14  17
ENDBRANCH   2  13
TORSDOF 3
ENDMDL
