MODEL 1
REMARK VINA RESULT:    -9.394      0.000      0.000
REMARK INTER + INTRA:         -12.581
REMARK INTER:                 -12.140
REMARK INTRA:                  -0.440
REMARK UNBOUND:                -0.440
REMARK  Name = 8a.sdf
REMARK  5 active torsions:
REMARK  status: ('A' for Active; 'I' for Inactive)
REMARK    1  A    between atoms: N_7  and  C_12
REMARK    2  A    between atoms: C_9  and  C_10
REMARK    3  A    between atoms: N_11  and  N_20
REMARK    4  A    between atoms: C_12  and  C_13
REMARK    5  A    between atoms: C_21  and  C_23
REMARK                            x       y       z     vdW  Elec       q    Type
REMARK                         _______ _______ _______ _____ _____    ______ ____
ROOT
ATOM      1  C   UNL     1      55.641 -14.723 -13.233  0.00  0.00    -0.061 A 
ATOM      2  C   UNL     1      54.841 -13.598 -13.396  0.00  0.00    -0.060 A 
ATOM      3  C   UNL     1      53.484 -13.627 -13.060  0.00  0.00    -0.038 A 
ATOM      4  C   UNL     1      52.949 -14.818 -12.542  0.00  0.00    +0.050 A 
ATOM      5  C   UNL     1      53.747 -15.949 -12.327  0.00  0.00    +0.009 A 
ATOM      6  C   UNL     1      55.110 -15.897 -12.694  0.00  0.00    -0.052 A 
ATOM      7  N   UNL     1      51.661 -15.158 -12.171  0.00  0.00    -0.342 N 
ATOM      8  C   UNL     1      51.646 -16.432 -11.659  0.00  0.00    +0.015 A 
ATOM      9  C   UNL     1      52.922 -16.956 -11.732  0.00  0.00    +0.020 A 
ENDROOT
BRANCH   9  10
ATOM     10  C   UNL     1      53.330 -18.266 -11.283  0.00  0.00    +0.055 C 
ATOM     11  N   UNL     1      52.823 -18.767 -10.201  0.00  0.00    -0.187 NA
BRANCH  11  12
ATOM     12  N   UNL     1      53.271 -20.008  -9.848  0.00  0.00    -0.203 N 
ATOM     13  C   UNL     1      52.740 -21.129 -10.472  0.00  0.00    +0.263 C 
ATOM     14  O   UNL     1      51.886 -21.116 -11.348  0.00  0.00    -0.268 OA
ATOM     15  H   UNL     1      53.965 -20.107  -9.156  0.00  0.00    +0.000 HD
BRANCH  13  16
ATOM     16  C   UNL     1      53.310 -22.438 -10.036  0.00  0.00    +0.038 A 
ATOM     17  C   UNL     1      52.654 -23.657 -10.247  0.00  0.00    -0.049 A 
ATOM     18  C   UNL     1      53.238 -24.851  -9.814  0.00  0.00    -0.047 A 
ATOM     19  C   UNL     1      54.483 -24.828  -9.181  0.00  0.00    +0.018 A 
ATOM     20  C   UNL     1      55.154 -23.625  -8.986  0.00  0.00    -0.047 A 
ATOM     21  C   UNL     1      54.571 -22.430  -9.419  0.00  0.00    -0.049 A 
ATOM     22 BR   UNL     1      55.264 -26.445  -8.595  0.00  0.00    -0.050 Br
ENDBRANCH  13  16
ENDBRANCH  11  12
ENDBRANCH   9  10
BRANCH   7  23
ATOM     23  C   UNL     1      50.459 -14.352 -12.378  0.00  0.00    +0.048 C 
BRANCH  23  24
ATOM     24  C   UNL     1      49.261 -15.208 -12.705  0.00  0.00    -0.028 A 
ATOM     25  C   UNL     1      48.076 -15.091 -11.962  0.00  0.00    -0.056 A 
ATOM     26  C   UNL     1      47.005 -15.955 -12.193  0.00  0.00    -0.047 A 
ATOM     27  C   UNL     1      47.107 -16.934 -13.178  0.00  0.00    +0.018 A 
ATOM     28  C   UNL     1      48.255 -17.031 -13.961  0.00  0.00    -0.047 A 
ATOM     29  C   UNL     1      49.328 -16.169 -13.725  0.00  0.00    -0.056 A 
ATOM     30 BR   UNL     1      45.690 -18.160 -13.431  0.00  0.00    -0.050 Br
ENDBRANCH  23  24
ENDBRANCH   7  23
TORSDOF 5
ENDMDL
MODEL 2
REMARK VINA RESULT:    -9.372      3.299      7.767
REMARK INTER + INTRA:         -12.552
REMARK INTER:                 -11.944
REMARK INTRA:                  -0.608
REMARK UNBOUND:                -0.440
REMARK  Name = 8a.sdf
REMARK  5 active torsions:
REMARK  status: ('A' for Active; 'I' for Inactive)
REMARK    1  A    between atoms: N_7  and  C_12
REMARK    2  A    between atoms: C_9  and  C_10
REMARK    3  A    between atoms: N_11  and  N_20
REMARK    4  A    between atoms: C_12  and  C_13
REMARK    5  A    between atoms: C_21  and  C_23
REMARK                            x       y       z     vdW  Elec       q    Type
REMARK                         _______ _______ _______ _____ _____    ______ ____
ROOT
ATOM      1  C   UNL     1      52.523 -13.626 -12.739  0.00  0.00    -0.061 A 
ATOM      2  C   UNL     1      53.889 -13.372 -12.711  0.00  0.00    -0.060 A 
ATOM      3  C   UNL     1      54.816 -14.407 -12.864  0.00  0.00    -0.038 A 
ATOM      4  C   UNL     1      54.335 -15.713 -13.057  0.00  0.00    +0.050 A 
ATOM      5  C   UNL     1      52.963 -15.985 -13.134  0.00  0.00    +0.009 A 
ATOM      6  C   UNL     1      52.050 -14.922 -12.957  0.00  0.00    -0.052 A 
ATOM      7  N   UNL     1      54.993 -16.921 -13.189  0.00  0.00    -0.342 N 
ATOM      8  C   UNL     1      54.084 -17.923 -13.424  0.00  0.00    +0.015 A 
ATOM      9  C   UNL     1      52.813 -17.382 -13.405  0.00  0.00    +0.020 A 
ENDROOT
BRANCH   9  10
ATOM     10  C   UNL     1      51.580 -18.102 -13.624  0.00  0.00    +0.055 C 
ATOM     11  N   UNL     1      50.661 -18.104 -12.711  0.00  0.00    -0.187 NA
BRANCH  11  12
ATOM     12  N   UNL     1      49.531 -18.816 -13.000  0.00  0.00    -0.203 N 
ATOM     13  C   UNL     1      48.478 -18.191 -13.655  0.00  0.00    +0.263 C 
ATOM     14  O   UNL     1      48.464 -17.024 -14.023  0.00  0.00    -0.268 OA
ATOM     15  H   UNL     1      49.464 -19.765 -12.746  0.00  0.00    +0.000 HD
BRANCH  13  16
ATOM     16  C   UNL     1      47.299 -19.057 -13.947  0.00  0.00    +0.038 A 
ATOM     17  C   UNL     1      47.395 -20.237 -14.696  0.00  0.00    -0.049 A 
ATOM     18  C   UNL     1      46.253 -21.008 -14.939  0.00  0.00    -0.047 A 
ATOM     19  C   UNL     1      45.019 -20.605 -14.424  0.00  0.00    +0.018 A 
ATOM     20  C   UNL     1      44.916 -19.447 -13.659  0.00  0.00    -0.047 A 
ATOM     21  C   UNL     1      46.057 -18.676 -13.416  0.00  0.00    -0.049 A 
ATOM     22 BR   UNL     1      43.480 -21.648 -14.760  0.00  0.00    -0.050 Br
ENDBRANCH  13  16
ENDBRANCH  11  12
ENDBRANCH   9  10
BRANCH   7  23
ATOM     23  C   UNL     1      56.425 -17.151 -13.003  0.00  0.00    +0.048 C 
BRANCH  23  24
ATOM     24  C   UNL     1      56.695 -18.451 -12.288  0.00  0.00    -0.028 A 
ATOM     25  C   UNL     1      57.339 -19.509 -12.947  0.00  0.00    -0.056 A 
ATOM     26  C   UNL     1      57.492 -20.747 -12.321  0.00  0.00    -0.047 A 
ATOM     27  C   UNL     1      57.014 -20.931 -11.026  0.00  0.00    +0.018 A 
ATOM     28  C   UNL     1      56.420 -19.876 -10.336  0.00  0.00    -0.047 A 
ATOM     29  C   UNL     1      56.261 -18.640 -10.965  0.00  0.00    -0.056 A 
ATOM     30 BR   UNL     1      57.145 -22.632 -10.211  0.00  0.00    -0.050 Br
ENDBRANCH  23  24
ENDBRANCH   7  23
TORSDOF 5
ENDMDL
MODEL 3
REMARK VINA RESULT:    -8.840      2.170      2.562
REMARK INTER + INTRA:         -11.864
REMARK INTER:                 -11.486
REMARK INTRA:                  -0.378
REMARK UNBOUND:                -0.440
REMARK  Name = 8a.sdf
REMARK  5 active torsions:
REMARK  status: ('A' for Active; 'I' for Inactive)
REMARK    1  A    between atoms: N_7  and  C_12
REMARK    2  A    between atoms: C_9  and  C_10
REMARK    3  A    between atoms: N_11  and  N_20
REMARK    4  A    between atoms: C_12  and  C_13
REMARK    5  A    between atoms: C_21  and  C_23
REMARK                            x       y       z     vdW  Elec       q    Type
REMARK                         _______ _______ _______ _____ _____    ______ ____
ROOT
ATOM      1  C   UNL     1      55.708 -14.553 -12.790  0.00  0.00    -0.061 A 
ATOM      2  C   UNL     1      54.629 -13.733 -13.098  0.00  0.00    -0.060 A 
ATOM      3  C   UNL     1      53.395 -14.277 -13.467  0.00  0.00    -0.038 A 
ATOM      4  C   UNL     1      53.267 -15.676 -13.510  0.00  0.00    +0.050 A 
ATOM      5  C   UNL     1      54.328 -16.520 -13.160  0.00  0.00    +0.009 A 
ATOM      6  C   UNL     1      55.568 -15.942 -12.810  0.00  0.00    -0.052 A 
ATOM      7  N   UNL     1      52.210 -16.487 -13.875  0.00  0.00    -0.342 N 
ATOM      8  C   UNL     1      52.549 -17.805 -13.689  0.00  0.00    +0.015 A 
ATOM      9  C   UNL     1      53.853 -17.868 -13.240  0.00  0.00    +0.020 A 
ENDROOT
BRANCH   9  10
ATOM     10  C   UNL     1      54.581 -19.072 -12.912  0.00  0.00    +0.055 C 
ATOM     11  N   UNL     1      53.941 -20.133 -12.536  0.00  0.00    -0.187 NA
BRANCH  11  12
ATOM     12  N   UNL     1      54.710 -21.222 -12.238  0.00  0.00    -0.203 N 
ATOM     13  C   UNL     1      54.911 -21.575 -10.910  0.00  0.00    +0.263 C 
ATOM     14  O   UNL     1      54.440 -20.992  -9.943  0.00  0.00    -0.268 OA
ATOM     15  H   UNL     1      55.120 -21.753 -12.959  0.00  0.00    +0.000 HD
BRANCH  13  16
ATOM     16  C   UNL     1      55.745 -22.792 -10.688  0.00  0.00    +0.038 A 
ATOM     17  C   UNL     1      55.313 -24.079 -11.035  0.00  0.00    -0.049 A 
ATOM     18  C   UNL     1      56.139 -25.183 -10.801  0.00  0.00    -0.047 A 
ATOM     19  C   UNL     1      57.401 -24.999 -10.231  0.00  0.00    +0.018 A 
ATOM     20  C   UNL     1      57.850 -23.723  -9.903  0.00  0.00    -0.047 A 
ATOM     21  C   UNL     1      57.024 -22.619 -10.138  0.00  0.00    -0.049 A 
ATOM     22 BR   UNL     1      58.510 -26.495  -9.913  0.00  0.00    -0.050 Br
ENDBRANCH  13  16
ENDBRANCH  11  12
ENDBRANCH   9  10
BRANCH   7  23
ATOM     23  C   UNL     1      50.950 -16.050 -14.475  0.00  0.00    +0.048 C 
BRANCH  23  24
ATOM     24  C   UNL     1      49.980 -15.545 -13.435  0.00  0.00    -0.028 A 
ATOM     25  C   UNL     1      48.671 -16.044 -13.377  0.00  0.00    -0.056 A 
ATOM     26  C   UNL     1      47.743 -15.501 -12.487  0.00  0.00    -0.047 A 
ATOM     27  C   UNL     1      48.123 -14.464 -11.639  0.00  0.00    +0.018 A 
ATOM     28  C   UNL     1      49.434 -13.992 -11.645  0.00  0.00    -0.047 A 
ATOM     29  C   UNL     1      50.360 -14.531 -12.540  0.00  0.00    -0.056 A 
ATOM     30 BR   UNL     1      46.844 -13.672 -10.495  0.00  0.00    -0.050 Br
ENDBRANCH  23  24
ENDBRANCH   7  23
TORSDOF 5
ENDMDL
