MODEL 1
REMARK VINA RESULT:    -9.071      0.000      0.000
REMARK INTER + INTRA:         -12.323
REMARK INTER:                 -11.723
REMARK INTRA:                  -0.600
REMARK UNBOUND:                -0.600
REMARK  Name = 8b.sdf
REMARK  5 active torsions:
REMARK  status: ('A' for Active; 'I' for Inactive)
REMARK    1  A    between atoms: N_7  and  C_12
REMARK    2  A    between atoms: C_9  and  C_10
REMARK    3  A    between atoms: N_11  and  N_19
REMARK    4  A    between atoms: C_12  and  C_13
REMARK    5  A    between atoms: C_20  and  C_22
REMARK                            x       y       z     vdW  Elec       q    Type
REMARK                         _______ _______ _______ _____ _____    ______ ____
ROOT
ATOM      1  C   UNL     1      55.621 -14.737 -13.397  0.00  0.00    -0.061 A 
ATOM      2  C   UNL     1      54.855 -13.578 -13.432  0.00  0.00    -0.060 A 
ATOM      3  C   UNL     1      53.527 -13.578 -12.990  0.00  0.00    -0.038 A 
ATOM      4  C   UNL     1      52.981 -14.782 -12.510  0.00  0.00    +0.050 A 
ATOM      5  C   UNL     1      53.754 -15.947 -12.415  0.00  0.00    +0.009 A 
ATOM      6  C   UNL     1      55.087 -15.919 -12.879  0.00  0.00    -0.052 A 
ATOM      7  N   UNL     1      51.707 -15.109 -12.078  0.00  0.00    -0.342 N 
ATOM      8  C   UNL     1      51.688 -16.409 -11.639  0.00  0.00    +0.015 A 
ATOM      9  C   UNL     1      52.943 -16.958 -11.812  0.00  0.00    +0.020 A 
ENDROOT
BRANCH   9  10
ATOM     10  C   UNL     1      53.341 -18.303 -11.450  0.00  0.00    +0.055 C 
ATOM     11  N   UNL     1      52.668 -18.953 -10.555  0.00  0.00    -0.187 NA
BRANCH  11  12
ATOM     12  N   UNL     1      53.119 -20.207 -10.261  0.00  0.00    -0.203 N 
ATOM     13  C   UNL     1      52.587 -21.301 -10.938  0.00  0.00    +0.263 C 
ATOM     14  O   UNL     1      51.733 -21.244 -11.813  0.00  0.00    -0.268 OA
ATOM     15  H   UNL     1      53.815 -20.337  -9.577  0.00  0.00    +0.000 HD
BRANCH  13  16
ATOM     16  C   UNL     1      53.160 -22.627 -10.567  0.00  0.00    +0.038 A 
ATOM     17  C   UNL     1      52.384 -23.656 -10.017  0.00  0.00    -0.049 A 
ATOM     18  C   UNL     1      52.977 -24.877  -9.674  0.00  0.00    -0.047 A 
ATOM     19  C   UNL     1      54.342 -25.072  -9.891  0.00  0.00    +0.018 A 
ATOM     20  C   UNL     1      55.117 -24.067 -10.464  0.00  0.00    -0.047 A 
ATOM     21  C   UNL     1      54.525 -22.847 -10.807  0.00  0.00    -0.049 A 
ATOM     22 BR   UNL     1      55.143 -26.715  -9.409  0.00  0.00    -0.050 Br
ENDBRANCH  13  16
ENDBRANCH  11  12
ENDBRANCH   9  10
BRANCH   7  23
ATOM     23  C   UNL     1      50.509 -14.278 -12.181  0.00  0.00    +0.048 C 
BRANCH  23  24
ATOM     24  C   UNL     1      49.313 -15.063 -12.652  0.00  0.00    -0.025 A 
ATOM     25  C   UNL     1      48.119 -15.055 -11.924  0.00  0.00    -0.039 A 
ATOM     26  C   UNL     1      47.071 -15.854 -12.353  0.00  0.00    +0.028 A 
ATOM     27  N   UNL     1      47.120 -16.632 -13.453  0.00  0.00    -0.263 NA
ATOM     28  C   UNL     1      48.271 -16.608 -14.159  0.00  0.00    +0.028 A 
ATOM     29  C   UNL     1      49.376 -15.850 -13.807  0.00  0.00    -0.039 A 
ENDBRANCH  23  24
ENDBRANCH   7  23
TORSDOF 5
ENDMDL
MODEL 2
REMARK VINA RESULT:    -8.990      2.125      2.501
REMARK INTER + INTRA:         -12.218
REMARK INTER:                 -11.429
REMARK INTRA:                  -0.789
REMARK UNBOUND:                -0.600
REMARK  Name = 8b.sdf
REMARK  5 active torsions:
REMARK  status: ('A' for Active; 'I' for Inactive)
REMARK    1  A    between atoms: N_7  and  C_12
REMARK    2  A    between atoms: C_9  and  C_10
REMARK    3  A    between atoms: N_11  and  N_19
REMARK    4  A    between atoms: C_12  and  C_13
REMARK    5  A    between atoms: C_20  and  C_22
REMARK                            x       y       z     vdW  Elec       q    Type
REMARK                         _______ _______ _______ _____ _____    ______ ____
ROOT
ATOM      1  C   UNL     1      55.669 -14.470 -12.786  0.00  0.00    -0.061 A 
ATOM      2  C   UNL     1      54.606 -13.598 -12.993  0.00  0.00    -0.060 A 
ATOM      3  C   UNL     1      53.346 -14.074 -13.370  0.00  0.00    -0.038 A 
ATOM      4  C   UNL     1      53.176 -15.460 -13.536  0.00  0.00    +0.050 A 
ATOM      5  C   UNL     1      54.219 -16.360 -13.278  0.00  0.00    +0.009 A 
ATOM      6  C   UNL     1      55.483 -15.848 -12.910  0.00  0.00    -0.052 A 
ATOM      7  N   UNL     1      52.093 -16.212 -13.959  0.00  0.00    -0.342 N 
ATOM      8  C   UNL     1      52.403 -17.548 -13.889  0.00  0.00    +0.015 A 
ATOM      9  C   UNL     1      53.705 -17.682 -13.452  0.00  0.00    +0.020 A 
ENDROOT
BRANCH   9  10
ATOM     10  C   UNL     1      54.401 -18.931 -13.222  0.00  0.00    +0.055 C 
ATOM     11  N   UNL     1      53.806 -19.891 -12.589  0.00  0.00    -0.187 NA
BRANCH  11  12
ATOM     12  N   UNL     1      54.538 -21.028 -12.401  0.00  0.00    -0.203 N 
ATOM     13  C   UNL     1      55.177 -21.236 -11.182  0.00  0.00    +0.263 C 
ATOM     14  O   UNL     1      55.134 -20.477 -10.223  0.00  0.00    -0.268 OA
ATOM     15  H   UNL     1      54.611 -21.695 -13.121  0.00  0.00    +0.000 HD
BRANCH  13  16
ATOM     16  C   UNL     1      55.931 -22.517 -11.062  0.00  0.00    +0.038 A 
ATOM     17  C   UNL     1      56.921 -22.721 -10.091  0.00  0.00    -0.049 A 
ATOM     18  C   UNL     1      57.607 -23.939 -10.033  0.00  0.00    -0.047 A 
ATOM     19  C   UNL     1      57.298 -24.955 -10.937  0.00  0.00    +0.018 A 
ATOM     20  C   UNL     1      56.296 -24.774 -11.887  0.00  0.00    -0.047 A 
ATOM     21  C   UNL     1      55.610 -23.558 -11.946  0.00  0.00    -0.049 A 
ATOM     22 BR   UNL     1      58.241 -26.592 -10.867  0.00  0.00    -0.050 Br
ENDBRANCH  13  16
ENDBRANCH  11  12
ENDBRANCH   9  10
BRANCH   7  23
ATOM     23  C   UNL     1      50.846 -15.706 -14.529  0.00  0.00    +0.048 C 
BRANCH  23  24
ATOM     24  C   UNL     1      49.783 -15.505 -13.481  0.00  0.00    -0.025 A 
ATOM     25  C   UNL     1      48.574 -16.204 -13.545  0.00  0.00    -0.039 A 
ATOM     26  C   UNL     1      47.594 -15.930 -12.603  0.00  0.00    +0.028 A 
ATOM     27  N   UNL     1      47.742 -15.037 -11.604  0.00  0.00    -0.263 NA
ATOM     28  C   UNL     1      48.925 -14.390 -11.541  0.00  0.00    +0.028 A 
ATOM     29  C   UNL     1      49.962 -14.589 -12.439  0.00  0.00    -0.039 A 
ENDBRANCH  23  24
ENDBRANCH   7  23
TORSDOF 5
ENDMDL
MODEL 3
REMARK VINA RESULT:    -8.712      2.965      5.690
REMARK INTER + INTRA:         -11.859
REMARK INTER:                 -11.115
REMARK INTRA:                  -0.744
REMARK UNBOUND:                -0.600
REMARK  Name = 8b.sdf
REMARK  5 active torsions:
REMARK  status: ('A' for Active; 'I' for Inactive)
REMARK    1  A    between atoms: N_7  and  C_12
REMARK    2  A    between atoms: C_9  and  C_10
REMARK    3  A    between atoms: N_11  and  N_19
REMARK    4  A    between atoms: C_12  and  C_13
REMARK    5  A    between atoms: C_20  and  C_22
REMARK                            x       y       z     vdW  Elec       q    Type
REMARK                         _______ _______ _______ _____ _____    ______ ____
ROOT
ATOM      1  C   UNL     1      50.876 -14.318 -12.043  0.00  0.00    -0.061 A 
ATOM      2  C   UNL     1      51.952 -13.598 -12.548  0.00  0.00    -0.060 A 
ATOM      3  C   UNL     1      53.142 -14.240 -12.913  0.00  0.00    -0.038 A 
ATOM      4  C   UNL     1      53.225 -15.634 -12.757  0.00  0.00    +0.050 A 
ATOM      5  C   UNL     1      52.131 -16.385 -12.303  0.00  0.00    +0.009 A 
ATOM      6  C   UNL     1      50.949 -15.708 -11.931  0.00  0.00    -0.052 A 
ATOM      7  N   UNL     1      54.265 -16.524 -12.960  0.00  0.00    -0.342 N 
ATOM      8  C   UNL     1      53.829 -17.806 -12.730  0.00  0.00    +0.015 A 
ATOM      9  C   UNL     1      52.506 -17.764 -12.340  0.00  0.00    +0.020 A 
ENDROOT
BRANCH   9  10
ATOM     10  C   UNL     1      51.673 -18.908 -12.029  0.00  0.00    +0.055 C 
ATOM     11  N   UNL     1      52.224 -20.029 -11.687  0.00  0.00    -0.187 NA
BRANCH  11  12
ATOM     12  N   UNL     1      51.369 -21.060 -11.427  0.00  0.00    -0.203 N 
ATOM     13  C   UNL     1      51.506 -21.779 -10.243  0.00  0.00    +0.263 C 
ATOM     14  O   UNL     1      52.340 -21.559  -9.375  0.00  0.00    -0.268 OA
ATOM     15  H   UNL     1      50.661 -21.293 -12.070  0.00  0.00    +0.000 HD
BRANCH  13  16
ATOM     16  C   UNL     1      50.511 -22.871 -10.034  0.00  0.00    +0.038 A 
ATOM     17  C   UNL     1      50.886 -24.179  -9.701  0.00  0.00    -0.049 A 
ATOM     18  C   UNL     1      49.910 -25.168  -9.531  0.00  0.00    -0.047 A 
ATOM     19  C   UNL     1      48.561 -24.847  -9.684  0.00  0.00    +0.018 A 
ATOM     20  C   UNL     1      48.175 -23.544  -9.986  0.00  0.00    -0.047 A 
ATOM     21  C   UNL     1      49.149 -22.555 -10.156  0.00  0.00    -0.049 A 
ATOM     22 BR   UNL     1      47.248 -26.190  -9.472  0.00  0.00    -0.050 Br
ENDBRANCH  13  16
ENDBRANCH  11  12
ENDBRANCH   9  10
BRANCH   7  23
ATOM     23  C   UNL     1      55.660 -16.190 -13.241  0.00  0.00    +0.048 C 
BRANCH  23  24
ATOM     24  C   UNL     1      56.619 -17.038 -12.448  0.00  0.00    -0.025 A 
ATOM     25  C   UNL     1      57.494 -17.920 -13.089  0.00  0.00    -0.039 A 
ATOM     26  C   UNL     1      58.303 -18.738 -12.315  0.00  0.00    +0.028 A 
ATOM     27  N   UNL     1      58.317 -18.722 -10.968  0.00  0.00    -0.263 NA
ATOM     28  C   UNL     1      57.485 -17.846 -10.364  0.00  0.00    +0.028 A 
ATOM     29  C   UNL     1      56.634 -16.994 -11.049  0.00  0.00    -0.039 A 
ENDBRANCH  23  24
ENDBRANCH   7  23
TORSDOF 5
ENDMDL
