MODEL 1
REMARK VINA RESULT:    -9.417      0.000      0.000
REMARK INTER + INTRA:         -12.170
REMARK INTER:                 -11.619
REMARK INTRA:                  -0.551
REMARK UNBOUND:                -0.551
REMARK  Name = 8d.sdf
REMARK  4 active torsions:
REMARK  status: ('A' for Active; 'I' for Inactive)
REMARK    1  A    between atoms: C_9  and  C_10
REMARK    2  A    between atoms: N_11  and  N_19
REMARK    3  A    between atoms: C_12  and  C_13
REMARK    4  A    between atoms: C_20  and  C_22
REMARK                            x       y       z     vdW  Elec       q    Type
REMARK                         _______ _______ _______ _____ _____    ______ ____
ROOT
ATOM      1  C   UNL     1      56.302 -16.006 -12.734  0.00  0.00    -0.061 A 
ATOM      2  C   UNL     1      55.654 -15.035 -13.485  0.00  0.00    -0.060 A 
ATOM      3  C   UNL     1      54.261 -15.032 -13.600  0.00  0.00    -0.037 A 
ATOM      4  C   UNL     1      53.528 -16.042 -12.949  0.00  0.00    +0.057 A 
ATOM      5  C   UNL     1      54.161 -17.019 -12.168  0.00  0.00    +0.009 A 
ATOM      6  C   UNL     1      55.571 -16.998 -12.068  0.00  0.00    -0.052 A 
ATOM      7  N   UNL     1      52.155 -16.267 -12.880  0.00  0.00    -0.282 N 
ATOM      8  C   UNL     1      51.948 -17.387 -12.097  0.00  0.00    +0.023 A 
ATOM      9  C   UNL     1      53.151 -17.868 -11.623  0.00  0.00    +0.020 A 
ATOM     10  C   UNL     1      51.125 -15.508 -13.490  0.00  0.00    +0.263 C 
ATOM     11  O   UNL     1      51.387 -14.926 -14.546  0.00  0.00    -0.267 OA
ENDROOT
BRANCH  10  12
ATOM     12  C   UNL     1      49.754 -15.416 -12.929  0.00  0.00    +0.040 A 
ATOM     13  C   UNL     1      48.729 -16.234 -13.427  0.00  0.00    -0.049 A 
ATOM     14  C   UNL     1      47.417 -16.045 -12.998  0.00  0.00    -0.061 A 
ATOM     15  C   UNL     1      47.135 -15.076 -12.038  0.00  0.00    -0.062 A 
ATOM     16  C   UNL     1      48.166 -14.321 -11.476  0.00  0.00    -0.061 A 
ATOM     17  C   UNL     1      49.480 -14.495 -11.913  0.00  0.00    -0.049 A 
ENDBRANCH  10  12
BRANCH   9  18
ATOM     18  C   UNL     1      53.300 -19.024 -10.759  0.00  0.00    +0.055 C 
ATOM     19  N   UNL     1      54.136 -19.953 -11.095  0.00  0.00    -0.187 NA
BRANCH  19  20
ATOM     20  N   UNL     1      54.250 -21.023 -10.248  0.00  0.00    -0.203 N 
ATOM     21  C   UNL     1      54.482 -22.289 -10.776  0.00  0.00    +0.263 C 
ATOM     22  O   UNL     1      54.603 -22.545 -11.971  0.00  0.00    -0.268 OA
ATOM     23  H   UNL     1      54.168 -20.898  -9.275  0.00  0.00    +0.000 HD
BRANCH  21  24
ATOM     24  C   UNL     1      54.626 -23.393  -9.784  0.00  0.00    +0.038 A 
ATOM     25  C   UNL     1      53.753 -24.490  -9.754  0.00  0.00    -0.049 A 
ATOM     26  C   UNL     1      53.908 -25.484  -8.781  0.00  0.00    -0.047 A 
ATOM     27  C   UNL     1      54.941 -25.391  -7.850  0.00  0.00    +0.018 A 
ATOM     28  C   UNL     1      55.842 -24.330  -7.896  0.00  0.00    -0.047 A 
ATOM     29  C   UNL     1      55.687 -23.335  -8.866  0.00  0.00    -0.049 A 
ATOM     30 BR   UNL     1      55.117 -26.714  -6.511  0.00  0.00    -0.050 Br
ENDBRANCH  21  24
ENDBRANCH  19  20
ENDBRANCH   9  18
TORSDOF 4
ENDMDL
MODEL 2
REMARK VINA RESULT:    -9.098      1.960      4.331
REMARK INTER + INTRA:         -11.777
REMARK INTER:                 -11.432
REMARK INTRA:                  -0.345
REMARK UNBOUND:                -0.551
REMARK  Name = 8d.sdf
REMARK  4 active torsions:
REMARK  status: ('A' for Active; 'I' for Inactive)
REMARK    1  A    between atoms: C_9  and  C_10
REMARK    2  A    between atoms: N_11  and  N_19
REMARK    3  A    between atoms: C_12  and  C_13
REMARK    4  A    between atoms: C_20  and  C_22
REMARK                            x       y       z     vdW  Elec       q    Type
REMARK                         _______ _______ _______ _____ _____    ______ ____
ROOT
ATOM      1  C   UNL     1      48.518 -20.040 -14.115  0.00  0.00    -0.061 A 
ATOM      2  C   UNL     1      48.254 -18.737 -14.515  0.00  0.00    -0.060 A 
ATOM      3  C   UNL     1      49.127 -17.697 -14.186  0.00  0.00    -0.037 A 
ATOM      4  C   UNL     1      50.275 -17.994 -13.428  0.00  0.00    +0.057 A 
ATOM      5  C   UNL     1      50.572 -19.306 -13.031  0.00  0.00    +0.009 A 
ATOM      6  C   UNL     1      49.672 -20.339 -13.379  0.00  0.00    -0.052 A 
ATOM      7  N   UNL     1      51.308 -17.172 -12.980  0.00  0.00    -0.282 N 
ATOM      8  C   UNL     1      52.208 -17.960 -12.289  0.00  0.00    +0.023 A 
ATOM      9  C   UNL     1      51.805 -19.279 -12.312  0.00  0.00    +0.020 A 
ATOM     10  C   UNL     1      51.444 -15.775 -13.178  0.00  0.00    +0.263 C 
ATOM     11  O   UNL     1      50.413 -15.106 -13.290  0.00  0.00    -0.267 OA
ENDROOT
BRANCH  10  12
ATOM     12  C   UNL     1      52.762 -15.094 -13.221  0.00  0.00    +0.040 A 
ATOM     13  C   UNL     1      53.883 -15.754 -13.745  0.00  0.00    -0.049 A 
ATOM     14  C   UNL     1      55.143 -15.166 -13.652  0.00  0.00    -0.061 A 
ATOM     15  C   UNL     1      55.277 -13.903 -13.082  0.00  0.00    -0.062 A 
ATOM     16  C   UNL     1      54.151 -13.206 -12.640  0.00  0.00    -0.061 A 
ATOM     17  C   UNL     1      52.889 -13.796 -12.716  0.00  0.00    -0.049 A 
ENDBRANCH  10  12
BRANCH   9  18
ATOM     18  C   UNL     1      52.526 -20.379 -11.696  0.00  0.00    +0.055 C 
ATOM     19  N   UNL     1      53.304 -20.132 -10.693  0.00  0.00    -0.187 NA
BRANCH  19  20
ATOM     20  N   UNL     1      53.960 -21.199 -10.139  0.00  0.00    -0.203 N 
ATOM     21  C   UNL     1      55.328 -21.341 -10.347  0.00  0.00    +0.263 C 
ATOM     22  O   UNL     1      56.028 -20.572 -11.001  0.00  0.00    -0.268 OA
ATOM     23  H   UNL     1      53.468 -21.858  -9.598  0.00  0.00    +0.000 HD
BRANCH  21  24
ATOM     24  C   UNL     1      55.972 -22.511  -9.681  0.00  0.00    +0.038 A 
ATOM     25  C   UNL     1      55.296 -23.302  -8.742  0.00  0.00    -0.049 A 
ATOM     26  C   UNL     1      55.955 -24.368  -8.118  0.00  0.00    -0.047 A 
ATOM     27  C   UNL     1      57.280 -24.651  -8.442  0.00  0.00    +0.018 A 
ATOM     28  C   UNL     1      57.950 -23.900  -9.406  0.00  0.00    -0.047 A 
ATOM     29  C   UNL     1      57.293 -22.834 -10.028  0.00  0.00    -0.049 A 
ATOM     30 BR   UNL     1      58.178 -26.064  -7.563  0.00  0.00    -0.050 Br
ENDBRANCH  21  24
ENDBRANCH  19  20
ENDBRANCH   9  18
TORSDOF 4
ENDMDL
MODEL 3
REMARK VINA RESULT:    -8.895      4.151      8.203
REMARK INTER + INTRA:         -11.526
REMARK INTER:                 -10.885
REMARK INTRA:                  -0.641
REMARK UNBOUND:                -0.551
REMARK  Name = 8d.sdf
REMARK  4 active torsions:
REMARK  status: ('A' for Active; 'I' for Inactive)
REMARK    1  A    between atoms: C_9  and  C_10
REMARK    2  A    between atoms: N_11  and  N_19
REMARK    3  A    between atoms: C_12  and  C_13
REMARK    4  A    between atoms: C_20  and  C_22
REMARK                            x       y       z     vdW  Elec       q    Type
REMARK                         _______ _______ _______ _____ _____    ______ ____
ROOT
ATOM      1  C   UNL     1      53.644 -13.925 -13.244  0.00  0.00    -0.061 A 
ATOM      2  C   UNL     1      55.019 -13.969 -13.057  0.00  0.00    -0.060 A 
ATOM      3  C   UNL     1      55.639 -15.125 -12.576  0.00  0.00    -0.037 A 
ATOM      4  C   UNL     1      54.839 -16.244 -12.273  0.00  0.00    +0.057 A 
ATOM      5  C   UNL     1      53.452 -16.228 -12.475  0.00  0.00    +0.009 A 
ATOM      6  C   UNL     1      52.851 -15.045 -12.963  0.00  0.00    -0.052 A 
ATOM      7  N   UNL     1      55.186 -17.509 -11.805  0.00  0.00    -0.282 N 
ATOM      8  C   UNL     1      54.026 -18.250 -11.687  0.00  0.00    +0.023 A 
ATOM      9  C   UNL     1      52.941 -17.510 -12.106  0.00  0.00    +0.020 A 
ATOM     10  C   UNL     1      56.484 -17.987 -11.493  0.00  0.00    +0.263 C 
ATOM     11  O   UNL     1      57.321 -17.168 -11.104  0.00  0.00    -0.267 OA
ENDROOT
BRANCH  10  12
ATOM     12  C   UNL     1      56.856 -19.421 -11.584  0.00  0.00    +0.040 A 
ATOM     13  C   UNL     1      57.260 -19.971 -12.809  0.00  0.00    -0.049 A 
ATOM     14  C   UNL     1      57.469 -21.344 -12.920  0.00  0.00    -0.061 A 
ATOM     15  C   UNL     1      57.324 -22.160 -11.800  0.00  0.00    -0.062 A 
ATOM     16  C   UNL     1      57.008 -21.602 -10.560  0.00  0.00    -0.061 A 
ATOM     17  C   UNL     1      56.782 -20.230 -10.446  0.00  0.00    -0.049 A 
ENDBRANCH  10  12
BRANCH   9  18
ATOM     18  C   UNL     1      51.569 -17.985 -12.130  0.00  0.00    +0.055 C 
ATOM     19  N   UNL     1      51.139 -18.600 -13.184  0.00  0.00    -0.187 NA
BRANCH  19  20
ATOM     20  N   UNL     1      49.841 -19.037 -13.161  0.00  0.00    -0.203 N 
ATOM     21  C   UNL     1      48.920 -18.482 -14.043  0.00  0.00    +0.263 C 
ATOM     22  O   UNL     1      49.170 -17.609 -14.872  0.00  0.00    -0.268 OA
ATOM     23  H   UNL     1      49.563 -19.736 -12.527  0.00  0.00    +0.000 HD
BRANCH  21  24
ATOM     24  C   UNL     1      47.537 -19.036 -13.977  0.00  0.00    +0.038 A 
ATOM     25  C   UNL     1      46.462 -18.306 -13.448  0.00  0.00    -0.049 A 
ATOM     26  C   UNL     1      45.190 -18.883 -13.375  0.00  0.00    -0.047 A 
ATOM     27  C   UNL     1      44.986 -20.180 -13.841  0.00  0.00    +0.018 A 
ATOM     28  C   UNL     1      46.035 -20.901 -14.410  0.00  0.00    -0.047 A 
ATOM     29  C   UNL     1      47.307 -20.326 -14.481  0.00  0.00    -0.049 A 
ATOM     30 BR   UNL     1      43.274 -20.969 -13.699  0.00  0.00    -0.050 Br
ENDBRANCH  21  24
ENDBRANCH  19  20
ENDBRANCH   9  18
TORSDOF 4
ENDMDL
