MODEL 1
REMARK VINA RESULT:    -8.837      0.000      0.000
REMARK INTER + INTRA:         -10.895
REMARK INTER:                 -10.387
REMARK INTRA:                  -0.508
REMARK UNBOUND:                -0.508
REMARK  Name = 9.sdf
REMARK  3 active torsions:
REMARK  status: ('A' for Active; 'I' for Inactive)
REMARK    1  A    between atoms: C_9  and  C_10
REMARK    2  A    between atoms: C_11  and  C_12
REMARK    3  A    between atoms: C_12  and  C_13
REMARK                            x       y       z     vdW  Elec       q    Type
REMARK                         _______ _______ _______ _____ _____    ______ ____
ROOT
ATOM      1  C   UNL     1      58.244 -17.393 -12.813  0.00  0.00    -0.061 A 
ATOM      2  C   UNL     1      58.513 -18.746 -12.988  0.00  0.00    -0.060 A 
ATOM      3  C   UNL     1      57.476 -19.679 -13.065  0.00  0.00    -0.038 A 
ATOM      4  C   UNL     1      56.161 -19.205 -12.970  0.00  0.00    +0.047 A 
ATOM      5  C   UNL     1      55.849 -17.851 -12.813  0.00  0.00    +0.007 A 
ATOM      6  C   UNL     1      56.924 -16.936 -12.719  0.00  0.00    -0.052 A 
ATOM      7  N   UNL     1      54.971 -19.895 -12.999  0.00  0.00    -0.360 N 
ATOM      8  C   UNL     1      53.916 -19.032 -12.861  0.00  0.00    +0.010 A 
ATOM      9  C   UNL     1      54.420 -17.753 -12.773  0.00  0.00    +0.000 A 
ATOM     10  H   UNL     1      54.889 -20.870 -13.104  0.00  0.00    +0.000 HD
ENDROOT
BRANCH   9  11
ATOM     11  C   UNL     1      53.583 -16.599 -12.647  0.00  0.00    -0.049 C 
ATOM     12  C   UNL     1      53.548 -15.589 -13.528  0.00  0.00    -0.014 C 
BRANCH  12  13
ATOM     13  C   UNL     1      52.689 -14.395 -13.319  0.00  0.00    +0.186 C 
ATOM     14  O   UNL     1      53.123 -13.252 -13.379  0.00  0.00    -0.287 OA
BRANCH  13  15
ATOM     15  C   UNL     1      51.262 -14.665 -12.989  0.00  0.00    +0.022 A 
ATOM     16  C   UNL     1      50.668 -13.991 -11.918  0.00  0.00    -0.051 A 
ATOM     17  C   UNL     1      49.336 -14.252 -11.583  0.00  0.00    -0.061 A 
ATOM     18  C   UNL     1      48.594 -15.172 -12.324  0.00  0.00    -0.062 A 
ATOM     19  C   UNL     1      49.173 -15.824 -13.411  0.00  0.00    -0.061 A 
ATOM     20  C   UNL     1      50.503 -15.568 -13.747  0.00  0.00    -0.051 A 
ENDBRANCH  13  15
ENDBRANCH  12  13
ENDBRANCH   9  11
TORSDOF 3
ENDMDL
MODEL 2
REMARK VINA RESULT:    -8.627      3.224      4.766
REMARK INTER + INTRA:         -10.648
REMARK INTER:                 -10.145
REMARK INTRA:                  -0.503
REMARK UNBOUND:                -0.508
REMARK  Name = 9.sdf
REMARK  3 active torsions:
REMARK  status: ('A' for Active; 'I' for Inactive)
REMARK    1  A    between atoms: C_9  and  C_10
REMARK    2  A    between atoms: C_11  and  C_12
REMARK    3  A    between atoms: C_12  and  C_13
REMARK                            x       y       z     vdW  Elec       q    Type
REMARK                         _______ _______ _______ _____ _____    ______ ____
ROOT
ATOM      1  C   UNL     1      51.180 -23.136 -10.062  0.00  0.00    -0.061 A 
ATOM      2  C   UNL     1      52.446 -23.710 -10.097  0.00  0.00    -0.060 A 
ATOM      3  C   UNL     1      53.463 -23.156 -10.879  0.00  0.00    -0.038 A 
ATOM      4  C   UNL     1      53.165 -22.001 -11.616  0.00  0.00    +0.047 A 
ATOM      5  C   UNL     1      51.911 -21.385 -11.593  0.00  0.00    +0.007 A 
ATOM      6  C   UNL     1      50.900 -21.984 -10.806  0.00  0.00    -0.052 A 
ATOM      7  N   UNL     1      53.962 -21.270 -12.467  0.00  0.00    -0.360 N 
ATOM      8  C   UNL     1      53.260 -20.216 -12.989  0.00  0.00    +0.010 A 
ATOM      9  C   UNL     1      51.993 -20.237 -12.447  0.00  0.00    +0.000 A 
ATOM     10  H   UNL     1      54.903 -21.475 -12.672  0.00  0.00    +0.000 HD
ENDROOT
BRANCH   9  11
ATOM     11  C   UNL     1      51.002 -19.254 -12.759  0.00  0.00    -0.049 C 
ATOM     12  C   UNL     1      51.120 -18.342 -13.735  0.00  0.00    -0.014 C 
BRANCH  12  13
ATOM     13  C   UNL     1      50.072 -17.318 -13.983  0.00  0.00    +0.186 C 
ATOM     14  O   UNL     1      49.147 -17.498 -14.764  0.00  0.00    -0.287 OA
BRANCH  13  15
ATOM     15  C   UNL     1      50.229 -16.030 -13.253  0.00  0.00    +0.022 A 
ATOM     16  C   UNL     1      51.408 -15.293 -13.410  0.00  0.00    -0.051 A 
ATOM     17  C   UNL     1      51.577 -14.094 -12.712  0.00  0.00    -0.061 A 
ATOM     18  C   UNL     1      50.568 -13.622 -11.872  0.00  0.00    -0.062 A 
ATOM     19  C   UNL     1      49.381 -14.339 -11.735  0.00  0.00    -0.061 A 
ATOM     20  C   UNL     1      49.208 -15.537 -12.428  0.00  0.00    -0.051 A 
ENDBRANCH  13  15
ENDBRANCH  12  13
ENDBRANCH   9  11
TORSDOF 3
ENDMDL
MODEL 3
REMARK VINA RESULT:    -8.566      2.209      7.128
REMARK INTER + INTRA:         -10.576
REMARK INTER:                 -10.077
REMARK INTRA:                  -0.500
REMARK UNBOUND:                -0.508
REMARK  Name = 9.sdf
REMARK  3 active torsions:
REMARK  status: ('A' for Active; 'I' for Inactive)
REMARK    1  A    between atoms: C_9  and  C_10
REMARK    2  A    between atoms: C_11  and  C_12
REMARK    3  A    between atoms: C_12  and  C_13
REMARK                            x       y       z     vdW  Elec       q    Type
REMARK                         _______ _______ _______ _____ _____    ______ ____
ROOT
ATOM      1  C   UNL     1      48.738 -17.319 -14.117  0.00  0.00    -0.061 A 
ATOM      2  C   UNL     1      47.575 -16.892 -13.485  0.00  0.00    -0.060 A 
ATOM      3  C   UNL     1      47.591 -15.800 -12.614  0.00  0.00    -0.038 A 
ATOM      4  C   UNL     1      48.814 -15.146 -12.409  0.00  0.00    +0.047 A 
ATOM      5  C   UNL     1      50.000 -15.533 -13.038  0.00  0.00    +0.007 A 
ATOM      6  C   UNL     1      49.951 -16.655 -13.899  0.00  0.00    -0.052 A 
ATOM      7  N   UNL     1      49.113 -14.070 -11.605  0.00  0.00    -0.360 N 
ATOM      8  C   UNL     1      50.445 -13.763 -11.696  0.00  0.00    +0.010 A 
ATOM      9  C   UNL     1      51.021 -14.629 -12.599  0.00  0.00    +0.000 A 
ATOM     10  H   UNL     1      48.463 -13.590 -11.044  0.00  0.00    +0.000 HD
ENDROOT
BRANCH   9  11
ATOM     11  C   UNL     1      52.407 -14.568 -12.953  0.00  0.00    -0.049 C 
ATOM     12  C   UNL     1      53.286 -15.557 -12.742  0.00  0.00    -0.014 C 
BRANCH  12  13
ATOM     13  C   UNL     1      54.723 -15.417 -13.094  0.00  0.00    +0.186 C 
ATOM     14  O   UNL     1      55.221 -14.347 -13.420  0.00  0.00    -0.287 OA
BRANCH  13  15
ATOM     15  C   UNL     1      55.529 -16.669 -13.067  0.00  0.00    +0.022 A 
ATOM     16  C   UNL     1      54.875 -17.904 -13.031  0.00  0.00    -0.051 A 
ATOM     17  C   UNL     1      55.620 -19.086 -12.982  0.00  0.00    -0.061 A 
ATOM     18  C   UNL     1      57.014 -19.036 -12.984  0.00  0.00    -0.062 A 
ATOM     19  C   UNL     1      57.670 -17.809 -13.049  0.00  0.00    -0.061 A 
ATOM     20  C   UNL     1      56.931 -16.627 -13.097  0.00  0.00    -0.051 A 
ENDBRANCH  13  15
ENDBRANCH  12  13
ENDBRANCH   9  11
TORSDOF 3
ENDMDL
