MODEL 1
REMARK VINA RESULT:    -8.299      0.000      0.000
REMARK INTER + INTRA:         -11.087
REMARK INTER:                 -10.239
REMARK INTRA:                  -0.847
REMARK UNBOUND:                -0.847
REMARK  Name = 17a.sdf
REMARK  4 active torsions:
REMARK  status: ('A' for Active; 'I' for Inactive)
REMARK    1  A    between atoms: N_7  and  C_16
REMARK    2  A    between atoms: C_9  and  C_10
REMARK    3  A    between atoms: N_11  and  N_12
REMARK    4  A    between atoms: C_16  and  C_17
REMARK                            x       y       z     vdW  Elec       q    Type
REMARK                         _______ _______ _______ _____ _____    ______ ____
ROOT
ATOM      1  C   UNL     1       4.014  -3.184  16.435  0.00  0.00    -0.061 A 
ATOM      2  C   UNL     1       5.212  -2.486  16.528  0.00  0.00    -0.060 A 
ATOM      3  C   UNL     1       5.481  -1.397  15.691  0.00  0.00    -0.038 A 
ATOM      4  C   UNL     1       4.508  -1.022  14.748  0.00  0.00    +0.050 A 
ATOM      5  C   UNL     1       3.270  -1.676  14.679  0.00  0.00    +0.009 A 
ATOM      6  C   UNL     1       3.032  -2.780  15.528  0.00  0.00    -0.052 A 
ATOM      7  N   UNL     1       4.508  -0.056  13.758  0.00  0.00    -0.342 N 
ATOM      8  C   UNL     1       3.283  -0.027  13.141  0.00  0.00    +0.015 A 
ATOM      9  C   UNL     1       2.485  -1.011  13.691  0.00  0.00    +0.020 A 
ENDROOT
BRANCH   9  10
ATOM     10  C   UNL     1       1.113  -1.288  13.321  0.00  0.00    +0.055 C 
ATOM     11  N   UNL     1       0.803  -1.371  12.069  0.00  0.00    -0.186 NA
BRANCH  11  12
ATOM     12  N   UNL     1      -0.512  -1.619  11.806  0.00  0.00    -0.191 N 
ATOM     13  C   UNL     1      -0.903  -2.385  10.737  0.00  0.00    +0.317 C 
ATOM     14  O   UNL     1      -2.072  -2.578  10.440  0.00  0.00    -0.251 OA
ATOM     15  N   UNL     1       0.129  -2.915  10.030  0.00  0.00    -0.312 N 
ATOM     16  H   UNL     1      -1.199  -1.239  12.400  0.00  0.00    +0.000 HD
ATOM     17  H   UNL     1       1.057  -2.734  10.303  0.00  0.00    +0.000 HD
ATOM     18  H   UNL     1      -0.053  -3.479   9.244  0.00  0.00    +0.000 HD
ENDBRANCH  11  12
ENDBRANCH   9  10
BRANCH   7  19
ATOM     19  C   UNL     1       5.650   0.745  13.313  0.00  0.00    +0.048 C 
BRANCH  19  20
ATOM     20  C   UNL     1       6.044   0.415  11.895  0.00  0.00    -0.028 A 
ATOM     21  C   UNL     1       6.473  -0.878  11.563  0.00  0.00    -0.056 A 
ATOM     22  C   UNL     1       6.986  -1.152  10.295  0.00  0.00    -0.047 A 
ATOM     23  C   UNL     1       7.053  -0.138   9.343  0.00  0.00    +0.018 A 
ATOM     24  C   UNL     1       6.557   1.131   9.629  0.00  0.00    -0.047 A 
ATOM     25  C   UNL     1       6.051   1.407  10.901  0.00  0.00    -0.056 A 
ATOM     26 BR   UNL     1       7.868  -0.476   7.672  0.00  0.00    -0.050 Br
ENDBRANCH  19  20
ENDBRANCH   7  19
TORSDOF 4
ENDMDL
MODEL 2
REMARK VINA RESULT:    -8.268      4.111      6.188
REMARK INTER + INTRA:         -11.049
REMARK INTER:                 -10.332
REMARK INTRA:                  -0.716
REMARK UNBOUND:                -0.847
REMARK  Name = 17a.sdf
REMARK  4 active torsions:
REMARK  status: ('A' for Active; 'I' for Inactive)
REMARK    1  A    between atoms: N_7  and  C_16
REMARK    2  A    between atoms: C_9  and  C_10
REMARK    3  A    between atoms: N_11  and  N_12
REMARK    4  A    between atoms: C_16  and  C_17
REMARK                            x       y       z     vdW  Elec       q    Type
REMARK                         _______ _______ _______ _____ _____    ______ ____
ROOT
ATOM      1  C   UNL     1       9.162  -1.652  16.441  0.00  0.00    -0.061 A 
ATOM      2  C   UNL     1       8.200  -1.836  17.427  0.00  0.00    -0.060 A 
ATOM      3  C   UNL     1       6.851  -1.560  17.181  0.00  0.00    -0.038 A 
ATOM      4  C   UNL     1       6.487  -1.088  15.907  0.00  0.00    +0.050 A 
ATOM      5  C   UNL     1       7.433  -0.951  14.883  0.00  0.00    +0.009 A 
ATOM      6  C   UNL     1       8.790  -1.226  15.165  0.00  0.00    -0.052 A 
ATOM      7  N   UNL     1       5.272  -0.670  15.392  0.00  0.00    -0.342 N 
ATOM      8  C   UNL     1       5.415  -0.368  14.061  0.00  0.00    +0.015 A 
ATOM      9  C   UNL     1       6.739  -0.540  13.706  0.00  0.00    +0.020 A 
ENDROOT
BRANCH   9  10
ATOM     10  C   UNL     1       7.289  -0.339  12.382  0.00  0.00    +0.055 C 
ATOM     11  N   UNL     1       6.505  -0.413  11.357  0.00  0.00    -0.186 NA
BRANCH  11  12
ATOM     12  N   UNL     1       7.106  -0.227  10.147  0.00  0.00    -0.191 N 
ATOM     13  C   UNL     1       6.839   0.872   9.370  0.00  0.00    +0.317 C 
ATOM     14  O   UNL     1       7.315   1.040   8.257  0.00  0.00    -0.251 OA
ATOM     15  N   UNL     1       5.993   1.765   9.946  0.00  0.00    -0.312 N 
ATOM     16  H   UNL     1       7.749  -0.898   9.822  0.00  0.00    +0.000 HD
ATOM     17  H   UNL     1       5.632   1.591  10.845  0.00  0.00    +0.000 HD
ATOM     18  H   UNL     1       5.742   2.585   9.464  0.00  0.00    +0.000 HD
ENDBRANCH  11  12
ENDBRANCH   9  10
BRANCH   7  19
ATOM     19  C   UNL     1       4.033  -0.444  16.138  0.00  0.00    +0.048 C 
BRANCH  19  20
ATOM     20  C   UNL     1       2.850  -1.098  15.467  0.00  0.00    -0.028 A 
ATOM     21  C   UNL     1       2.774  -2.496  15.374  0.00  0.00    -0.056 A 
ATOM     22  C   UNL     1       1.768  -3.103  14.623  0.00  0.00    -0.047 A 
ATOM     23  C   UNL     1       0.818  -2.316  13.976  0.00  0.00    +0.018 A 
ATOM     24  C   UNL     1       0.831  -0.931  14.123  0.00  0.00    -0.047 A 
ATOM     25  C   UNL     1       1.843  -0.323  14.870  0.00  0.00    -0.056 A 
ATOM     26 BR   UNL     1      -0.464  -3.131  12.852  0.00  0.00    -0.050 Br
ENDBRANCH  19  20
ENDBRANCH   7  19
TORSDOF 4
ENDMDL
MODEL 3
REMARK VINA RESULT:    -8.121      4.099      6.322
REMARK INTER + INTRA:         -10.867
REMARK INTER:                 -10.347
REMARK INTRA:                  -0.520
REMARK UNBOUND:                -0.847
REMARK  Name = 17a.sdf
REMARK  4 active torsions:
REMARK  status: ('A' for Active; 'I' for Inactive)
REMARK    1  A    between atoms: N_7  and  C_16
REMARK    2  A    between atoms: C_9  and  C_10
REMARK    3  A    between atoms: N_11  and  N_12
REMARK    4  A    between atoms: C_16  and  C_17
REMARK                            x       y       z     vdW  Elec       q    Type
REMARK                         _______ _______ _______ _____ _____    ______ ____
ROOT
ATOM      1  C   UNL     1       8.183  -1.305  15.343  0.00  0.00    -0.061 A 
ATOM      2  C   UNL     1       7.047  -1.603  16.086  0.00  0.00    -0.060 A 
ATOM      3  C   UNL     1       5.782  -1.166  15.679  0.00  0.00    -0.038 A 
ATOM      4  C   UNL     1       5.683  -0.412  14.496  0.00  0.00    +0.050 A 
ATOM      5  C   UNL     1       6.809  -0.150  13.703  0.00  0.00    +0.009 A 
ATOM      6  C   UNL     1       8.075  -0.594  14.146  0.00  0.00    -0.052 A 
ATOM      7  N   UNL     1       4.607   0.207  13.885  0.00  0.00    -0.342 N 
ATOM      8  C   UNL     1       5.009   0.763  12.696  0.00  0.00    +0.015 A 
ATOM      9  C   UNL     1       6.366   0.554  12.544  0.00  0.00    +0.020 A 
ENDROOT
BRANCH   9  10
ATOM     10  C   UNL     1       7.161   0.974  11.410  0.00  0.00    +0.055 C 
ATOM     11  N   UNL     1       6.586   1.595  10.433  0.00  0.00    -0.186 NA
BRANCH  11  12
ATOM     12  N   UNL     1       7.403   1.942   9.398  0.00  0.00    -0.191 N 
ATOM     13  C   UNL     1       6.911   2.502   8.246  0.00  0.00    +0.317 C 
ATOM     14  O   UNL     1       7.607   2.769   7.278  0.00  0.00    -0.251 OA
ATOM     15  N   UNL     1       5.573   2.734   8.271  0.00  0.00    -0.312 N 
ATOM     16  H   UNL     1       8.372   1.788   9.480  0.00  0.00    +0.000 HD
ATOM     17  H   UNL     1       5.049   2.502   9.071  0.00  0.00    +0.000 HD
ATOM     18  H   UNL     1       5.129   3.133   7.489  0.00  0.00    +0.000 HD
ENDBRANCH  11  12
ENDBRANCH   9  10
BRANCH   7  19
ATOM     19  C   UNL     1       3.263   0.381  14.439  0.00  0.00    +0.048 C 
BRANCH  19  20
ATOM     20  C   UNL     1       2.252  -0.490  13.736  0.00  0.00    -0.028 A 
ATOM     21  C   UNL     1       1.861  -0.197  12.421  0.00  0.00    -0.056 A 
ATOM     22  C   UNL     1       0.817  -0.900  11.819  0.00  0.00    -0.047 A 
ATOM     23  C   UNL     1       0.171  -1.914  12.521  0.00  0.00    +0.018 A 
ATOM     24  C   UNL     1       0.600  -2.272  13.797  0.00  0.00    -0.047 A 
ATOM     25  C   UNL     1       1.641  -1.563  14.403  0.00  0.00    -0.056 A 
ATOM     26 BR   UNL     1      -1.326  -2.775  11.756  0.00  0.00    -0.050 Br
ENDBRANCH  19  20
ENDBRANCH   7  19
TORSDOF 4
ENDMDL
