REMARK VINA RESULT:    -8.738      0.000      0.000
REMARK INTER + INTRA:         -11.609
REMARK INTER:                 -10.781
REMARK INTRA:                  -0.828
REMARK UNBOUND:                -0.828
REMARK  Name = 17c.sdf
REMARK  4 active torsions:
REMARK  status: ('A' for Active; 'I' for Inactive)
REMARK    1  A    between atoms: N_7  and  C_16
REMARK    2  A    between atoms: C_9  and  C_10
REMARK    3  A    between atoms: N_11  and  N_12
REMARK    4  A    between atoms: C_16  and  C_17
REMARK                            x       y       z     vdW  Elec       q    Type
REMARK                         _______ _______ _______ _____ _____    ______ ____
ROOT
ATOM      1  C   UNL     1       4.238  -3.095  15.981  0.00  0.00    -0.061 A 
ATOM      2  C   UNL     1       5.442  -2.400  15.991  0.00  0.00    -0.060 A 
ATOM      3  C   UNL     1       5.627  -1.260  15.196  0.00  0.00    -0.038 A 
ATOM      4  C   UNL     1       4.577  -0.848  14.356  0.00  0.00    +0.050 A 
ATOM      5  C   UNL     1       3.336  -1.503  14.375  0.00  0.00    +0.009 A 
ATOM      6  C   UNL     1       3.174  -2.640  15.199  0.00  0.00    -0.052 A 
ATOM      7  N   UNL     1       4.491   0.155  13.401  0.00  0.00    -0.342 N 
ATOM      8  C   UNL     1       3.211   0.197  12.901  0.00  0.00    +0.015 A 
ATOM      9  C   UNL     1       2.462  -0.802  13.490  0.00  0.00    +0.020 A 
ENDROOT
BRANCH   9  10
ATOM     10  C   UNL     1       1.060  -1.072  13.239  0.00  0.00    +0.055 C 
ATOM     11  N   UNL     1       0.712  -1.576  12.098  0.00  0.00    -0.186 NA
BRANCH  11  12
ATOM     12  N   UNL     1      -0.630  -1.767  11.918  0.00  0.00    -0.191 N 
ATOM     13  C   UNL     1      -1.124  -2.441  10.820  0.00  0.00    +0.317 C 
ATOM     14  O   UNL     1      -2.308  -2.651  10.651  0.00  0.00    -0.251 OA
ATOM     15  N   UNL     1      -0.167  -2.831   9.949  0.00  0.00    -0.312 N 
ATOM     16  H   UNL     1      -1.259  -1.417  12.590  0.00  0.00    +0.000 HD
ATOM     17  H   UNL     1       0.779  -2.635  10.137  0.00  0.00    +0.000 HD
ATOM     18  H   UNL     1      -0.417  -3.312   9.128  0.00  0.00    +0.000 HD
ENDBRANCH  11  12
ENDBRANCH   9  10
BRANCH   7  19
ATOM     19  C   UNL     1       5.585   0.965  12.854  0.00  0.00    +0.048 C 
BRANCH  19  20
ATOM     20  C   UNL     1       6.043   0.467  11.505  0.00  0.00    -0.028 A 
ATOM     21  C   UNL     1       6.414  -0.874  11.338  0.00  0.00    -0.055 A 
ATOM     22  C   UNL     1       7.043  -1.295  10.165  0.00  0.00    -0.043 A 
ATOM     23  C   UNL     1       7.265  -0.385   9.135  0.00  0.00    +0.041 A 
ATOM     24  C   UNL     1       6.795   0.921   9.237  0.00  0.00    -0.043 A 
ATOM     25  C   UNL     1       6.182   1.347  10.418  0.00  0.00    -0.055 A 
ATOM     26 CL   UNL     1       8.178  -0.864   7.758  0.00  0.00    -0.084 Cl
ENDBRANCH  19  20
ENDBRANCH   7  19
TORSDOF 4
