REMARK VINA RESULT:    -8.624      4.778      7.544
REMARK INTER + INTRA:         -11.469
REMARK INTER:                 -10.946
REMARK INTRA:                  -0.523
REMARK UNBOUND:                -0.828
REMARK  Name = 17c.sdf
REMARK  4 active torsions:
REMARK  status: ('A' for Active; 'I' for Inactive)
REMARK    1  A    between atoms: N_7  and  C_16
REMARK    2  A    between atoms: C_9  and  C_10
REMARK    3  A    between atoms: N_11  and  N_12
REMARK    4  A    between atoms: C_16  and  C_17
REMARK                            x       y       z     vdW  Elec       q    Type
REMARK                         _______ _______ _______ _____ _____    ______ ____
ROOT
ATOM      1  C   UNL     1       8.061   5.218   7.165  0.00  0.00    -0.061 A 
ATOM      2  C   UNL     1       8.942   4.179   7.439  0.00  0.00    -0.060 A 
ATOM      3  C   UNL     1       8.512   2.844   7.431  0.00  0.00    -0.038 A 
ATOM      4  C   UNL     1       7.156   2.576   7.174  0.00  0.00    +0.050 A 
ATOM      5  C   UNL     1       6.265   3.607   6.841  0.00  0.00    +0.009 A 
ATOM      6  C   UNL     1       6.731   4.942   6.840  0.00  0.00    -0.052 A 
ATOM      7  N   UNL     1       6.422   1.398   7.196  0.00  0.00    -0.342 N 
ATOM      8  C   UNL     1       5.132   1.660   6.797  0.00  0.00    +0.015 A 
ATOM      9  C   UNL     1       4.999   3.012   6.553  0.00  0.00    +0.020 A 
ENDROOT
BRANCH   9  10
ATOM     10  C   UNL     1       3.795   3.678   6.096  0.00  0.00    +0.055 C 
ATOM     11  N   UNL     1       2.647   3.131   6.335  0.00  0.00    -0.186 NA
BRANCH  11  12
ATOM     12  N   UNL     1       1.558   3.796   5.841  0.00  0.00    -0.191 N 
ATOM     13  C   UNL     1       0.330   3.736   6.466  0.00  0.00    +0.317 C 
ATOM     14  O   UNL     1      -0.645   4.340   6.066  0.00  0.00    -0.251 OA
ATOM     15  N   UNL     1       0.314   2.934   7.553  0.00  0.00    -0.312 N 
ATOM     16  H   UNL     1       1.654   4.331   5.021  0.00  0.00    +0.000 HD
ATOM     17  H   UNL     1       1.134   2.469   7.834  0.00  0.00    +0.000 HD
ATOM     18  H   UNL     1      -0.519   2.817   8.065  0.00  0.00    +0.000 HD
ENDBRANCH  11  12
ENDBRANCH   9  10
BRANCH   7  19
ATOM     19  C   UNL     1       6.847   0.089   7.705  0.00  0.00    +0.048 C 
BRANCH  19  20
ATOM     20  C   UNL     1       6.862   0.041   9.213  0.00  0.00    -0.028 A 
ATOM     21  C   UNL     1       7.049  -1.180   9.877  0.00  0.00    -0.055 A 
ATOM     22  C   UNL     1       6.848  -1.275  11.255  0.00  0.00    -0.043 A 
ATOM     23  C   UNL     1       6.499  -0.140  11.982  0.00  0.00    +0.041 A 
ATOM     24  C   UNL     1       6.427   1.102  11.358  0.00  0.00    -0.043 A 
ATOM     25  C   UNL     1       6.611   1.194   9.976  0.00  0.00    -0.055 A 
ATOM     26 CL   UNL     1       6.098  -0.287  13.649  0.00  0.00    -0.084 Cl
ENDBRANCH  19  20
ENDBRANCH   7  19
TORSDOF 4
