REMARK VINA RESULT:    -8.267      4.186      6.340
REMARK INTER + INTRA:         -11.028
REMARK INTER:                 -10.247
REMARK INTRA:                  -0.782
REMARK UNBOUND:                -0.828
REMARK  Name = 17c.sdf
REMARK  4 active torsions:
REMARK  status: ('A' for Active; 'I' for Inactive)
REMARK    1  A    between atoms: N_7  and  C_16
REMARK    2  A    between atoms: C_9  and  C_10
REMARK    3  A    between atoms: N_11  and  N_12
REMARK    4  A    between atoms: C_16  and  C_17
REMARK                            x       y       z     vdW  Elec       q    Type
REMARK                         _______ _______ _______ _____ _____    ______ ____
ROOT
ATOM      1  C   UNL     1       9.183  -1.445  16.109  0.00  0.00    -0.061 A 
ATOM      2  C   UNL     1       8.223  -1.612  17.100  0.00  0.00    -0.060 A 
ATOM      3  C   UNL     1       6.867  -1.365  16.844  0.00  0.00    -0.038 A 
ATOM      4  C   UNL     1       6.495  -0.909  15.567  0.00  0.00    +0.050 A 
ATOM      5  C   UNL     1       7.443  -0.788  14.538  0.00  0.00    +0.009 A 
ATOM      6  C   UNL     1       8.801  -1.060  14.822  0.00  0.00    -0.052 A 
ATOM      7  N   UNL     1       5.279  -0.491  15.047  0.00  0.00    -0.342 N 
ATOM      8  C   UNL     1       5.429  -0.207  13.710  0.00  0.00    +0.015 A 
ATOM      9  C   UNL     1       6.750  -0.394  13.353  0.00  0.00    +0.020 A 
ENDROOT
BRANCH   9  10
ATOM     10  C   UNL     1       7.304  -0.215  12.026  0.00  0.00    +0.055 C 
ATOM     11  N   UNL     1       6.498  -0.050  11.027  0.00  0.00    -0.186 NA
BRANCH  11  12
ATOM     12  N   UNL     1       7.091   0.075   9.800  0.00  0.00    -0.191 N 
ATOM     13  C   UNL     1       6.857   1.167   8.991  0.00  0.00    +0.317 C 
ATOM     14  O   UNL     1       7.392   1.317   7.912  0.00  0.00    -0.251 OA
ATOM     15  N   UNL     1       5.968   2.043   9.509  0.00  0.00    -0.312 N 
ATOM     16  H   UNL     1       7.701  -0.632   9.488  0.00  0.00    +0.000 HD
ATOM     17  H   UNL     1       5.564   1.873  10.390  0.00  0.00    +0.000 HD
ATOM     18  H   UNL     1       5.725   2.853   9.004  0.00  0.00    +0.000 HD
ENDBRANCH  11  12
ENDBRANCH   9  10
BRANCH   7  19
ATOM     19  C   UNL     1       4.038  -0.220  15.782  0.00  0.00    +0.048 C 
BRANCH  19  20
ATOM     20  C   UNL     1       2.878  -1.034  15.263  0.00  0.00    -0.028 A 
ATOM     21  C   UNL     1       2.873  -2.428  15.415  0.00  0.00    -0.055 A 
ATOM     22  C   UNL     1       1.925  -3.209  14.752  0.00  0.00    -0.043 A 
ATOM     23  C   UNL     1       0.951  -2.597  13.968  0.00  0.00    +0.041 A 
ATOM     24  C   UNL     1       0.869  -1.209  13.904  0.00  0.00    -0.043 A 
ATOM     25  C   UNL     1       1.829  -0.427  14.553  0.00  0.00    -0.055 A 
ATOM     26 CL   UNL     1      -0.118  -3.563  13.029  0.00  0.00    -0.084 Cl
ENDBRANCH  19  20
ENDBRANCH   7  19
TORSDOF 4
