REMARK VINA RESULT:    -8.327      0.000      0.000
REMARK INTER + INTRA:         -10.156
REMARK INTER:                  -9.787
REMARK INTRA:                  -0.369
REMARK UNBOUND:                -0.369
REMARK  Name = 1c.sdf
REMARK  3 active torsions:
REMARK  status: ('A' for Active; 'I' for Inactive)
REMARK    1  A    between atoms: N_7  and  C_12
REMARK    2  A    between atoms: C_9  and  C_10
REMARK    3  A    between atoms: C_12  and  C_13
REMARK                            x       y       z     vdW  Elec       q    Type
REMARK                         _______ _______ _______ _____ _____    ______ ____
ROOT
ATOM      1  C   UNL     1       5.345  -2.725  17.437  0.00  0.00    -0.061 A 
ATOM      2  C   UNL     1       4.356  -2.882  16.470  0.00  0.00    -0.060 A 
ATOM      3  C   UNL     1       4.503  -2.342  15.183  0.00  0.00    -0.038 A 
ATOM      4  C   UNL     1       5.664  -1.605  14.891  0.00  0.00    +0.050 A 
ATOM      5  C   UNL     1       6.699  -1.491  15.834  0.00  0.00    +0.010 A 
ATOM      6  C   UNL     1       6.527  -2.054  17.118  0.00  0.00    -0.052 A 
ATOM      7  N   UNL     1       6.054  -0.874  13.775  0.00  0.00    -0.342 N 
ATOM      8  C   UNL     1       7.335  -0.406  13.962  0.00  0.00    +0.016 A 
ATOM      9  C   UNL     1       7.762  -0.777  15.220  0.00  0.00    +0.039 A 
ENDROOT
BRANCH   9  10
ATOM     10  C   UNL     1       9.063  -0.464  15.788  0.00  0.00    +0.152 C 
ATOM     11  O   UNL     1      10.031  -1.210  15.725  0.00  0.00    -0.296 OA
ENDBRANCH   9  10
BRANCH   7  12
ATOM     12  C   UNL     1       5.233  -0.476  12.626  0.00  0.00    +0.048 C 
BRANCH  12  13
ATOM     13  C   UNL     1       6.058  -0.256  11.381  0.00  0.00    -0.028 A 
ATOM     14  C   UNL     1       6.213   1.036  10.863  0.00  0.00    -0.055 A 
ATOM     15  C   UNL     1       6.783   1.231   9.604  0.00  0.00    -0.043 A 
ATOM     16  C   UNL     1       7.240   0.136   8.874  0.00  0.00    +0.041 A 
ATOM     17  C   UNL     1       7.202  -1.142   9.425  0.00  0.00    -0.043 A 
ATOM     18  C   UNL     1       6.615  -1.338  10.680  0.00  0.00    -0.055 A 
ATOM     19 CL   UNL     1       7.795   0.359   7.261  0.00  0.00    -0.084 Cl
ENDBRANCH  12  13
ENDBRANCH   7  12
TORSDOF 3
