REMARK VINA RESULT:    -8.431      3.137      8.911
REMARK INTER + INTRA:         -11.701
REMARK INTER:                 -11.203
REMARK INTRA:                  -0.498
REMARK UNBOUND:                -0.806
REMARK  Name = 8a.sdf
REMARK  5 active torsions:
REMARK  status: ('A' for Active; 'I' for Inactive)
REMARK    1  A    between atoms: N_7  and  C_12
REMARK    2  A    between atoms: C_9  and  C_10
REMARK    3  A    between atoms: N_11  and  N_20
REMARK    4  A    between atoms: C_12  and  C_13
REMARK    5  A    between atoms: C_21  and  C_23
REMARK                            x       y       z     vdW  Elec       q    Type
REMARK                         _______ _______ _______ _____ _____    ______ ____
ROOT
ATOM      1  C   UNL     1       6.948  -2.130  18.137  0.00  0.00    -0.061 A 
ATOM      2  C   UNL     1       8.209  -2.033  17.562  0.00  0.00    -0.060 A 
ATOM      3  C   UNL     1       8.374  -1.517  16.273  0.00  0.00    -0.038 A 
ATOM      4  C   UNL     1       7.234  -1.087  15.574  0.00  0.00    +0.050 A 
ATOM      5  C   UNL     1       5.958  -1.133  16.152  0.00  0.00    +0.009 A 
ATOM      6  C   UNL     1       5.820  -1.677  17.448  0.00  0.00    -0.052 A 
ATOM      7  N   UNL     1       7.078  -0.586  14.296  0.00  0.00    -0.342 N 
ATOM      8  C   UNL     1       5.765  -0.245  14.086  0.00  0.00    +0.015 A 
ATOM      9  C   UNL     1       5.038  -0.562  15.217  0.00  0.00    +0.020 A 
ENDROOT
BRANCH   9  10
ATOM     10  C   UNL     1       3.622  -0.347  15.405  0.00  0.00    +0.055 C 
ATOM     11  N   UNL     1       3.210   0.553  16.241  0.00  0.00    -0.187 NA
BRANCH  11  12
ATOM     12  N   UNL     1       1.855   0.683  16.361  0.00  0.00    -0.203 N 
ATOM     13  C   UNL     1       1.189  -0.006  17.366  0.00  0.00    +0.263 C 
ATOM     14  O   UNL     1       1.715  -0.737  18.194  0.00  0.00    -0.268 OA
ATOM     15  H   UNL     1       1.355   1.260  15.740  0.00  0.00    +0.000 HD
BRANCH  13  16
ATOM     16  C   UNL     1      -0.285   0.220  17.430  0.00  0.00    +0.038 A 
ATOM     17  C   UNL     1      -0.984   0.310  18.641  0.00  0.00    -0.049 A 
ATOM     18  C   UNL     1      -2.367   0.521  18.638  0.00  0.00    -0.047 A 
ATOM     19  C   UNL     1      -3.047   0.653  17.426  0.00  0.00    +0.018 A 
ATOM     20  C   UNL     1      -2.360   0.588  16.218  0.00  0.00    -0.047 A 
ATOM     21  C   UNL     1      -0.978   0.378  16.220  0.00  0.00    -0.049 A 
ATOM     22 BR   UNL     1      -4.916   0.933  17.429  0.00  0.00    -0.050 Br
ENDBRANCH  13  16
ENDBRANCH  11  12
ENDBRANCH   9  10
BRANCH   7  23
ATOM     23  C   UNL     1       8.110  -0.518  13.261  0.00  0.00    +0.048 C 
BRANCH  23  24
ATOM     24  C   UNL     1       7.541  -0.096  11.930  0.00  0.00    -0.028 A 
ATOM     25  C   UNL     1       7.283  -1.045  10.930  0.00  0.00    -0.056 A 
ATOM     26  C   UNL     1       6.858  -0.643   9.662  0.00  0.00    -0.047 A 
ATOM     27  C   UNL     1       6.676   0.711   9.391  0.00  0.00    +0.018 A 
ATOM     28  C   UNL     1       6.877   1.664  10.388  0.00  0.00    -0.047 A 
ATOM     29  C   UNL     1       7.307   1.261  11.654  0.00  0.00    -0.056 A 
ATOM     30 BR   UNL     1       6.186   1.260   7.650  0.00  0.00    -0.050 Br
ENDBRANCH  23  24
ENDBRANCH   7  23
TORSDOF 5
