REMARK VINA RESULT:    -9.584      0.000      0.000
REMARK INTER + INTRA:         -13.191
REMARK INTER:                 -12.386
REMARK INTRA:                  -0.806
REMARK UNBOUND:                -0.806
REMARK  Name = 8a.sdf
REMARK  5 active torsions:
REMARK  status: ('A' for Active; 'I' for Inactive)
REMARK    1  A    between atoms: N_7  and  C_12
REMARK    2  A    between atoms: C_9  and  C_10
REMARK    3  A    between atoms: N_11  and  N_20
REMARK    4  A    between atoms: C_12  and  C_13
REMARK    5  A    between atoms: C_21  and  C_23
REMARK                            x       y       z     vdW  Elec       q    Type
REMARK                         _______ _______ _______ _____ _____    ______ ____
ROOT
ATOM      1  C   UNL     1       8.997  -1.043  16.332  0.00  0.00    -0.061 A 
ATOM      2  C   UNL     1       8.332  -2.018  17.065  0.00  0.00    -0.060 A 
ATOM      3  C   UNL     1       7.023  -2.390  16.745  0.00  0.00    -0.038 A 
ATOM      4  C   UNL     1       6.396  -1.761  15.656  0.00  0.00    +0.050 A 
ATOM      5  C   UNL     1       7.064  -0.808  14.876  0.00  0.00    +0.009 A 
ATOM      6  C   UNL     1       8.379  -0.438  15.235  0.00  0.00    -0.052 A 
ATOM      7  N   UNL     1       5.120  -1.881  15.139  0.00  0.00    -0.342 N 
ATOM      8  C   UNL     1       4.996  -1.097  14.019  0.00  0.00    +0.015 A 
ATOM      9  C   UNL     1       6.183  -0.420  13.817  0.00  0.00    +0.020 A 
ENDROOT
BRANCH   9  10
ATOM     10  C   UNL     1       6.465   0.496  12.737  0.00  0.00    +0.055 C 
ATOM     11  N   UNL     1       5.729   0.487  11.671  0.00  0.00    -0.187 NA
BRANCH  11  12
ATOM     12  N   UNL     1       6.073   1.381  10.697  0.00  0.00    -0.203 N 
ATOM     13  C   UNL     1       6.713   0.929   9.550  0.00  0.00    +0.263 C 
ATOM     14  O   UNL     1       7.000  -0.236   9.311  0.00  0.00    -0.268 OA
ATOM     15  H   UNL     1       5.870   2.338  10.808  0.00  0.00    +0.000 HD
BRANCH  13  16
ATOM     16  C   UNL     1       7.027   1.977   8.535  0.00  0.00    +0.038 A 
ATOM     17  C   UNL     1       6.195   2.241   7.439  0.00  0.00    -0.049 A 
ATOM     18  C   UNL     1       6.543   3.235   6.519  0.00  0.00    -0.047 A 
ATOM     19  C   UNL     1       7.714   3.973   6.702  0.00  0.00    +0.018 A 
ATOM     20  C   UNL     1       8.535   3.736   7.799  0.00  0.00    -0.047 A 
ATOM     21  C   UNL     1       8.188   2.742   8.720  0.00  0.00    -0.049 A 
ATOM     22 BR   UNL     1       8.180   5.312   5.453  0.00  0.00    -0.050 Br
ENDBRANCH  13  16
ENDBRANCH  11  12
ENDBRANCH   9  10
BRANCH   7  23
ATOM     23  C   UNL     1       4.014  -2.633  15.731  0.00  0.00    +0.048 C 
BRANCH  23  24
ATOM     24  C   UNL     1       2.743  -1.821  15.770  0.00  0.00    -0.028 A 
ATOM     25  C   UNL     1       1.662  -2.147  14.938  0.00  0.00    -0.056 A 
ATOM     26  C   UNL     1       0.529  -1.334  14.895  0.00  0.00    -0.047 A 
ATOM     27  C   UNL     1       0.463  -0.196  15.696  0.00  0.00    +0.018 A 
ATOM     28  C   UNL     1       1.505   0.114  16.568  0.00  0.00    -0.047 A 
ATOM     29  C   UNL     1       2.641  -0.697  16.605  0.00  0.00    -0.056 A 
ATOM     30 BR   UNL     1      -1.034   0.951  15.574  0.00  0.00    -0.050 Br
ENDBRANCH  23  24
ENDBRANCH   7  23
TORSDOF 5
