MODEL 1
REMARK VINA RESULT:    -5.621      0.000      0.000
REMARK INTER + INTRA:          -5.621
REMARK INTER:                  -5.621
REMARK INTRA:                   0.000
REMARK UNBOUND:                 0.000
REMARK  Name = 0.sdf
REMARK  0 active torsions:
REMARK  status: ('A' for Active; 'I' for Inactive)
REMARK                            x       y       z     vdW  Elec       q    Type
REMARK                         _______ _______ _______ _____ _____    ______ ____
ROOT
ATOM      1  C   UNL     1       7.727  -1.653   9.181  0.00  0.00    -0.061 A 
ATOM      2  C   UNL     1       7.177  -1.225  10.388  0.00  0.00    -0.060 A 
ATOM      3  C   UNL     1       6.592   0.041  10.505  0.00  0.00    -0.038 A 
ATOM      4  C   UNL     1       6.585   0.858   9.369  0.00  0.00    +0.046 A 
ATOM      5  C   UNL     1       7.130   0.456   8.149  0.00  0.00    -0.000 A 
ATOM      6  C   UNL     1       7.708  -0.824   8.054  0.00  0.00    -0.053 A 
ATOM      7  N   UNL     1       6.092   2.131   9.192  0.00  0.00    -0.361 N 
ATOM      8  C   UNL     1       6.314   2.551   7.907  0.00  0.00    +0.003 A 
ATOM      9  C   UNL     1       6.951   1.533   7.236  0.00  0.00    -0.037 A 
ATOM     10  H   UNL     1       5.645   2.663   9.888  0.00  0.00    +0.000 HD
ENDROOT
TORSDOF 0
ENDMDL
MODEL 2
REMARK VINA RESULT:    -5.538      1.137      2.861
REMARK INTER + INTRA:          -5.538
REMARK INTER:                  -5.538
REMARK INTRA:                   0.000
REMARK UNBOUND:                 0.000
REMARK  Name = 0.sdf
REMARK  0 active torsions:
REMARK  status: ('A' for Active; 'I' for Inactive)
REMARK                            x       y       z     vdW  Elec       q    Type
REMARK                         _______ _______ _______ _____ _____    ______ ____
ROOT
ATOM      1  C   UNL     1       7.822  -1.266   8.417  0.00  0.00    -0.061 A 
ATOM      2  C   UNL     1       7.606   0.002   7.881  0.00  0.00    -0.060 A 
ATOM      3  C   UNL     1       7.004   1.012   8.639  0.00  0.00    -0.038 A 
ATOM      4  C   UNL     1       6.625   0.699   9.950  0.00  0.00    +0.046 A 
ATOM      5  C   UNL     1       6.828  -0.562  10.512  0.00  0.00    -0.000 A 
ATOM      6  C   UNL     1       7.441  -1.561   9.731  0.00  0.00    -0.053 A 
ATOM      7  N   UNL     1       6.019   1.477  10.911  0.00  0.00    -0.361 N 
ATOM      8  C   UNL     1       5.823   0.750  12.055  0.00  0.00    +0.003 A 
ATOM      9  C   UNL     1       6.319  -0.515  11.839  0.00  0.00    -0.037 A 
ATOM     10  H   UNL     1       5.762   2.419  10.792  0.00  0.00    +0.000 HD
ENDROOT
TORSDOF 0
ENDMDL
MODEL 3
REMARK VINA RESULT:    -5.292      2.212      4.474
REMARK INTER + INTRA:          -5.292
REMARK INTER:                  -5.292
REMARK INTRA:                   0.000
REMARK UNBOUND:                 0.000
REMARK  Name = 0.sdf
REMARK  0 active torsions:
REMARK  status: ('A' for Active; 'I' for Inactive)
REMARK                            x       y       z     vdW  Elec       q    Type
REMARK                         _______ _______ _______ _____ _____    ______ ____
ROOT
ATOM      1  C   UNL     1       8.072   4.922   6.674  0.00  0.00    -0.061 A 
ATOM      2  C   UNL     1       6.699   5.162   6.669  0.00  0.00    -0.060 A 
ATOM      3  C   UNL     1       5.785   4.127   6.897  0.00  0.00    -0.038 A 
ATOM      4  C   UNL     1       6.301   2.846   7.125  0.00  0.00    +0.046 A 
ATOM      5  C   UNL     1       7.670   2.577   7.133  0.00  0.00    -0.000 A 
ATOM      6  C   UNL     1       8.571   3.635   6.908  0.00  0.00    -0.053 A 
ATOM      7  N   UNL     1       5.653   1.656   7.369  0.00  0.00    -0.361 N 
ATOM      8  C   UNL     1       6.563   0.643   7.522  0.00  0.00    +0.003 A 
ATOM      9  C   UNL     1       7.821   1.185   7.387  0.00  0.00    -0.037 A 
ATOM     10  H   UNL     1       4.677   1.549   7.424  0.00  0.00    +0.000 HD
ENDROOT
TORSDOF 0
ENDMDL
