MODEL 1
REMARK VINA RESULT:    -8.740      0.000      0.000
REMARK INTER + INTRA:          -9.488
REMARK INTER:                  -9.251
REMARK INTRA:                  -0.236
REMARK UNBOUND:                -0.236
REMARK  Name = 0d.sdf
REMARK  1 active torsions:
REMARK  status: ('A' for Active; 'I' for Inactive)
REMARK    1  A    between atoms: C_10  and  C_11
REMARK                            x       y       z     vdW  Elec       q    Type
REMARK                         _______ _______ _______ _____ _____    ______ ____
ROOT
ATOM      1  C   UNL     1       7.781  -2.040  17.282  0.00  0.00    -0.061 A 
ATOM      2  C   UNL     1       6.554  -2.218  16.651  0.00  0.00    -0.060 A 
ATOM      3  C   UNL     1       6.335  -1.739  15.355  0.00  0.00    -0.037 A 
ATOM      4  C   UNL     1       7.384  -1.066  14.701  0.00  0.00    +0.057 A 
ATOM      5  C   UNL     1       8.626  -0.889  15.323  0.00  0.00    +0.000 A 
ATOM      6  C   UNL     1       8.822  -1.378  16.629  0.00  0.00    -0.053 A 
ATOM      7  N   UNL     1       7.472  -0.532  13.413  0.00  0.00    -0.283 N 
ATOM      8  C   UNL     1       8.739   0.017  13.270  0.00  0.00    +0.014 A 
ATOM      9  C   UNL     1       9.466  -0.203  14.413  0.00  0.00    -0.036 A 
ATOM     10  C   UNL     1       6.471  -0.546  12.408  0.00  0.00    +0.263 C 
ATOM     11  O   UNL     1       5.297  -0.635  12.755  0.00  0.00    -0.267 OA
ENDROOT
BRANCH  10  12
ATOM     12  C   UNL     1       6.788  -0.456  10.957  0.00  0.00    +0.040 A 
ATOM     13  C   UNL     1       7.272  -1.577  10.269  0.00  0.00    -0.049 A 
ATOM     14  C   UNL     1       7.615  -1.478   8.921  0.00  0.00    -0.061 A 
ATOM     15  C   UNL     1       7.445  -0.266   8.250  0.00  0.00    -0.062 A 
ATOM     16  C   UNL     1       6.911   0.836   8.918  0.00  0.00    -0.061 A 
ATOM     17  C   UNL     1       6.572   0.742  10.271  0.00  0.00    -0.049 A 
ENDBRANCH  10  12
TORSDOF 1
ENDMDL
MODEL 2
REMARK VINA RESULT:    -7.384      1.411      2.341
REMARK INTER + INTRA:          -8.052
REMARK INTER:                  -7.868
REMARK INTRA:                  -0.185
REMARK UNBOUND:                -0.236
REMARK  Name = 0d.sdf
REMARK  1 active torsions:
REMARK  status: ('A' for Active; 'I' for Inactive)
REMARK    1  A    between atoms: C_10  and  C_11
REMARK                            x       y       z     vdW  Elec       q    Type
REMARK                         _______ _______ _______ _____ _____    ______ ____
ROOT
ATOM      1  C   UNL     1       4.739  -3.055  17.489  0.00  0.00    -0.061 A 
ATOM      2  C   UNL     1       3.723  -2.789  16.578  0.00  0.00    -0.060 A 
ATOM      3  C   UNL     1       3.978  -2.071  15.404  0.00  0.00    -0.037 A 
ATOM      4  C   UNL     1       5.289  -1.620  15.164  0.00  0.00    +0.057 A 
ATOM      5  C   UNL     1       6.323  -1.892  16.069  0.00  0.00    +0.000 A 
ATOM      6  C   UNL     1       6.041  -2.612  17.246  0.00  0.00    -0.053 A 
ATOM      7  N   UNL     1       5.842  -0.938  14.078  0.00  0.00    -0.283 N 
ATOM      8  C   UNL     1       7.191  -0.743  14.344  0.00  0.00    +0.014 A 
ATOM      9  C   UNL     1       7.511  -1.330  15.543  0.00  0.00    -0.036 A 
ATOM     10  C   UNL     1       5.176  -0.519  12.898  0.00  0.00    +0.263 C 
ATOM     11  O   UNL     1       3.963  -0.334  12.947  0.00  0.00    -0.267 OA
ENDROOT
BRANCH  10  12
ATOM     12  C   UNL     1       5.886  -0.295  11.609  0.00  0.00    +0.040 A 
ATOM     13  C   UNL     1       5.986   0.995  11.072  0.00  0.00    -0.049 A 
ATOM     14  C   UNL     1       6.607   1.196   9.840  0.00  0.00    -0.061 A 
ATOM     15  C   UNL     1       7.159   0.111   9.158  0.00  0.00    -0.062 A 
ATOM     16  C   UNL     1       7.111  -1.167   9.716  0.00  0.00    -0.061 A 
ATOM     17  C   UNL     1       6.482  -1.372  10.948  0.00  0.00    -0.049 A 
ENDBRANCH  10  12
TORSDOF 1
ENDMDL
MODEL 3
REMARK VINA RESULT:    -7.256      2.183      3.987
REMARK INTER + INTRA:          -7.917
REMARK INTER:                  -7.871
REMARK INTRA:                  -0.046
REMARK UNBOUND:                -0.236
REMARK  Name = 0d.sdf
REMARK  1 active torsions:
REMARK  status: ('A' for Active; 'I' for Inactive)
REMARK    1  A    between atoms: C_10  and  C_11
REMARK                            x       y       z     vdW  Elec       q    Type
REMARK                         _______ _______ _______ _____ _____    ______ ____
ROOT
ATOM      1  C   UNL     1       5.991  -3.356  19.739  0.00  0.00    -0.061 A 
ATOM      2  C   UNL     1       7.174  -2.804  19.262  0.00  0.00    -0.060 A 
ATOM      3  C   UNL     1       7.286  -2.380  17.932  0.00  0.00    -0.037 A 
ATOM      4  C   UNL     1       6.173  -2.528  17.084  0.00  0.00    +0.057 A 
ATOM      5  C   UNL     1       4.973  -3.073  17.557  0.00  0.00    +0.000 A 
ATOM      6  C   UNL     1       4.885  -3.496  18.898  0.00  0.00    -0.053 A 
ATOM      7  N   UNL     1       5.977  -2.158  15.752  0.00  0.00    -0.283 N 
ATOM      8  C   UNL     1       4.686  -2.526  15.397  0.00  0.00    +0.014 A 
ATOM      9  C   UNL     1       4.049  -3.070  16.484  0.00  0.00    -0.036 A 
ATOM     10  C   UNL     1       6.904  -1.509  14.896  0.00  0.00    +0.263 C 
ATOM     11  O   UNL     1       8.102  -1.630  15.135  0.00  0.00    -0.267 OA
ENDROOT
BRANCH  10  12
ATOM     12  C   UNL     1       6.483  -0.693  13.725  0.00  0.00    +0.040 A 
ATOM     13  C   UNL     1       5.500   0.296  13.870  0.00  0.00    -0.049 A 
ATOM     14  C   UNL     1       5.071   1.025  12.762  0.00  0.00    -0.061 A 
ATOM     15  C   UNL     1       5.647   0.790  11.513  0.00  0.00    -0.062 A 
ATOM     16  C   UNL     1       6.665  -0.154  11.376  0.00  0.00    -0.061 A 
ATOM     17  C   UNL     1       7.092  -0.892  12.484  0.00  0.00    -0.049 A 
ENDBRANCH  10  12
TORSDOF 1
ENDMDL
