MODEL 1
REMARK VINA RESULT:    -7.013      0.000      0.000
REMARK INTER + INTRA:          -8.530
REMARK INTER:                  -8.243
REMARK INTRA:                  -0.287
REMARK UNBOUND:                -0.287
REMARK  Name = 14e.sdf
REMARK  5 active torsions:
REMARK  status: ('A' for Active; 'I' for Inactive)
REMARK    1  A    between atoms: C_9  and  C_10
REMARK    2  A    between atoms: C_10  and  O_11
REMARK    3  A    between atoms: O_11  and  C_12
REMARK    4  A    between atoms: C_12  and  C_13
REMARK    5  A    between atoms: C_15  and  C_16
REMARK                            x       y       z     vdW  Elec       q    Type
REMARK                         _______ _______ _______ _____ _____    ______ ____
ROOT
ATOM      1  C   UNL     1       9.273  -1.469  16.460  0.00  0.00    -0.061 A 
ATOM      2  C   UNL     1       8.327  -2.038  17.299  0.00  0.00    -0.060 A 
ATOM      3  C   UNL     1       6.981  -2.095  16.926  0.00  0.00    -0.037 A 
ATOM      4  C   UNL     1       6.591  -1.558  15.682  0.00  0.00    +0.057 A 
ATOM      5  C   UNL     1       7.535  -0.977  14.830  0.00  0.00    +0.007 A 
ATOM      6  C   UNL     1       8.891  -0.943  15.225  0.00  0.00    -0.052 A 
ATOM      7  N   UNL     1       5.334  -1.486  15.061  0.00  0.00    -0.287 N 
ATOM      8  C   UNL     1       5.522  -0.850  13.840  0.00  0.00    +0.020 A 
ATOM      9  C   UNL     1       6.851  -0.520  13.668  0.00  0.00    +0.015 A 
ATOM     10  C   UNL     1       4.120  -1.985  15.598  0.00  0.00    +0.229 C 
ATOM     11  C   UNL     1       2.867  -1.829  14.786  0.00  0.00    +0.015 C 
ATOM     12  O   UNL     1       4.108  -2.527  16.699  0.00  0.00    -0.273 OA
ENDROOT
BRANCH   9  13
ATOM     13  C   UNL     1       7.462   0.163  12.483  0.00  0.00    +0.119 C 
BRANCH  13  14
ATOM     14  O   UNL     1       6.470   0.872  11.723  0.00  0.00    -0.460 OA
BRANCH  14  15
ATOM     15  C   UNL     1       6.614   0.840  10.376  0.00  0.00    +0.304 C 
ATOM     16  C   UNL     1       6.931  -0.546   9.902  0.00  0.00    +0.033 C 
ATOM     17  O   UNL     1       6.497   1.796   9.619  0.00  0.00    -0.251 OA
ENDBRANCH  14  15
ENDBRANCH  13  14
ENDBRANCH   9  13
TORSDOF 3
ENDMDL
MODEL 2
REMARK VINA RESULT:    -6.717      1.886      5.485
REMARK INTER + INTRA:          -8.182
REMARK INTER:                  -7.762
REMARK INTRA:                  -0.420
REMARK UNBOUND:                -0.287
REMARK  Name = 14e.sdf
REMARK  5 active torsions:
REMARK  status: ('A' for Active; 'I' for Inactive)
REMARK    1  A    between atoms: C_9  and  C_10
REMARK    2  A    between atoms: C_10  and  O_11
REMARK    3  A    between atoms: O_11  and  C_12
REMARK    4  A    between atoms: C_12  and  C_13
REMARK    5  A    between atoms: C_15  and  C_16
REMARK                            x       y       z     vdW  Elec       q    Type
REMARK                         _______ _______ _______ _____ _____    ______ ____
ROOT
ATOM      1  C   UNL     1       8.608  -2.007  17.382  0.00  0.00    -0.061 A 
ATOM      2  C   UNL     1       9.323  -1.545  16.287  0.00  0.00    -0.060 A 
ATOM      3  C   UNL     1       8.663  -1.045  15.161  0.00  0.00    -0.037 A 
ATOM      4  C   UNL     1       7.252  -1.021  15.146  0.00  0.00    +0.057 A 
ATOM      5  C   UNL     1       6.521  -1.490  16.243  0.00  0.00    +0.007 A 
ATOM      6  C   UNL     1       7.213  -1.979  17.373  0.00  0.00    -0.052 A 
ATOM      7  N   UNL     1       6.346  -0.576  14.171  0.00  0.00    -0.287 N 
ATOM      8  C   UNL     1       5.071  -0.790  14.676  0.00  0.00    +0.020 A 
ATOM      9  C   UNL     1       5.138  -1.351  15.936  0.00  0.00    +0.015 A 
ATOM     10  C   UNL     1       6.696  -0.013  12.918  0.00  0.00    +0.229 C 
ATOM     11  C   UNL     1       5.590   0.419  11.999  0.00  0.00    +0.015 C 
ATOM     12  O   UNL     1       7.876   0.114  12.604  0.00  0.00    -0.273 OA
ENDROOT
BRANCH   9  13
ATOM     13  C   UNL     1       3.987  -1.720  16.820  0.00  0.00    +0.119 C 
BRANCH  13  14
ATOM     14  O   UNL     1       3.972  -0.921  18.014  0.00  0.00    -0.460 OA
BRANCH  14  15
ATOM     15  C   UNL     1       4.001  -1.600  19.187  0.00  0.00    +0.304 C 
ATOM     16  C   UNL     1       3.952  -3.080  18.952  0.00  0.00    +0.033 C 
ATOM     17  O   UNL     1       4.071  -1.101  20.303  0.00  0.00    -0.251 OA
ENDBRANCH  14  15
ENDBRANCH  13  14
ENDBRANCH   9  13
TORSDOF 3
ENDMDL
MODEL 3
REMARK VINA RESULT:    -6.680      2.479      5.062
REMARK INTER + INTRA:          -8.139
REMARK INTER:                  -7.688
REMARK INTRA:                  -0.451
REMARK UNBOUND:                -0.287
REMARK  Name = 14e.sdf
REMARK  5 active torsions:
REMARK  status: ('A' for Active; 'I' for Inactive)
REMARK    1  A    between atoms: C_9  and  C_10
REMARK    2  A    between atoms: C_10  and  O_11
REMARK    3  A    between atoms: O_11  and  C_12
REMARK    4  A    between atoms: C_12  and  C_13
REMARK    5  A    between atoms: C_15  and  C_16
REMARK                            x       y       z     vdW  Elec       q    Type
REMARK                         _______ _______ _______ _____ _____    ______ ____
ROOT
ATOM      1  C   UNL     1       6.007   0.270  11.974  0.00  0.00    -0.061 A 
ATOM      2  C   UNL     1       7.361   0.470  12.200  0.00  0.00    -0.060 A 
ATOM      3  C   UNL     1       7.984  -0.059  13.334  0.00  0.00    -0.037 A 
ATOM      4  C   UNL     1       7.215  -0.798  14.257  0.00  0.00    +0.057 A 
ATOM      5  C   UNL     1       5.847  -1.001  14.043  0.00  0.00    +0.007 A 
ATOM      6  C   UNL     1       5.246  -0.466  12.882  0.00  0.00    -0.052 A 
ATOM      7  N   UNL     1       7.572  -1.437  15.455  0.00  0.00    -0.287 N 
ATOM      8  C   UNL     1       6.417  -2.014  15.966  0.00  0.00    +0.020 A 
ATOM      9  C   UNL     1       5.344  -1.764  15.134  0.00  0.00    +0.015 A 
ATOM     10  C   UNL     1       8.877  -1.476  16.009  0.00  0.00    +0.229 C 
ATOM     11  C   UNL     1       9.078  -2.219  17.298  0.00  0.00    +0.015 C 
ATOM     12  O   UNL     1       9.808  -0.915  15.441  0.00  0.00    -0.273 OA
ENDROOT
BRANCH   9  13
ATOM     13  C   UNL     1       3.931  -2.224  15.325  0.00  0.00    +0.119 C 
BRANCH  13  14
ATOM     14  O   UNL     1       3.124  -1.191  15.913  0.00  0.00    -0.460 OA
BRANCH  14  15
ATOM     15  C   UNL     1       2.230  -0.590  15.090  0.00  0.00    +0.304 C 
ATOM     16  C   UNL     1       1.614  -1.583  14.150  0.00  0.00    +0.033 C 
ATOM     17  O   UNL     1       1.934   0.598  15.097  0.00  0.00    -0.251 OA
ENDBRANCH  14  15
ENDBRANCH  13  14
ENDBRANCH   9  13
TORSDOF 3
ENDMDL
