MODEL 1
REMARK VINA RESULT:    -8.708      0.000      0.000
REMARK INTER + INTRA:         -12.008
REMARK INTER:                 -11.253
REMARK INTRA:                  -0.754
REMARK UNBOUND:                -0.754
REMARK  Name = 17f.sdf
REMARK  5 active torsions:
REMARK  status: ('A' for Active; 'I' for Inactive)
REMARK    1  A    between atoms: N_7  and  C_11
REMARK    2  A    between atoms: C_9  and  C_10
REMARK    3  A    between atoms: C_11  and  C_12
REMARK    4  A    between atoms: C_12  and  C_13
REMARK    5  A    between atoms: N_21  and  N_22
REMARK                            x       y       z     vdW  Elec       q    Type
REMARK                         _______ _______ _______ _____ _____    ______ ____
ROOT
ATOM      1  C   UNL     1       8.961  -0.885  15.482  0.00  0.00    -0.061 A 
ATOM      2  C   UNL     1       8.057  -1.387  16.411  0.00  0.00    -0.060 A 
ATOM      3  C   UNL     1       6.684  -1.424  16.139  0.00  0.00    -0.038 A 
ATOM      4  C   UNL     1       6.249  -0.969  14.885  0.00  0.00    +0.050 A 
ATOM      5  C   UNL     1       7.155  -0.586  13.890  0.00  0.00    +0.009 A 
ATOM      6  C   UNL     1       8.526  -0.496  14.214  0.00  0.00    -0.052 A 
ATOM      7  N   UNL     1       4.984  -0.778  14.359  0.00  0.00    -0.338 N 
ATOM      8  C   UNL     1       5.077  -0.524  13.013  0.00  0.00    +0.015 A 
ATOM      9  C   UNL     1       6.415  -0.435  12.678  0.00  0.00    +0.020 A 
ENDROOT
BRANCH   9  10
ATOM     10  C   UNL     1       6.974  -0.286  11.352  0.00  0.00    +0.055 C 
ATOM     11  N   UNL     1       6.518   0.638  10.564  0.00  0.00    -0.186 NA
BRANCH  11  12
ATOM     12  N   UNL     1       7.037   0.598   9.295  0.00  0.00    -0.191 N 
ATOM     13  C   UNL     1       6.661   1.513   8.344  0.00  0.00    +0.317 C 
ATOM     14  O   UNL     1       7.001   1.438   7.171  0.00  0.00    -0.251 OA
ATOM     15  N   UNL     1       5.883   2.515   8.822  0.00  0.00    -0.312 N 
ATOM     16  H   UNL     1       7.690  -0.101   9.061  0.00  0.00    +0.000 HD
ATOM     17  H   UNL     1       5.634   2.533   9.775  0.00  0.00    +0.000 HD
ATOM     18  H   UNL     1       5.568   3.225   8.217  0.00  0.00    +0.000 HD
ENDBRANCH  11  12
ENDBRANCH   9  10
BRANCH   7  19
ATOM     19  C   UNL     1       3.753  -0.619  15.134  0.00  0.00    +0.086 C 
BRANCH  19  20
ATOM     20  C   UNL     1       2.869  -1.844  15.181  0.00  0.00    +0.183 C 
ATOM     21  O   UNL     1       2.993  -2.736  16.013  0.00  0.00    -0.290 OA
BRANCH  20  22
ATOM     22  C   UNL     1       1.770  -1.957  14.161  0.00  0.00    +0.019 A 
ATOM     23  C   UNL     1       1.417  -0.907  13.302  0.00  0.00    -0.050 A 
ATOM     24  C   UNL     1       0.329  -1.044  12.430  0.00  0.00    -0.047 A 
ATOM     25  C   UNL     1      -0.404  -2.230  12.410  0.00  0.00    +0.018 A 
ATOM     26  C   UNL     1      -0.036  -3.297  13.224  0.00  0.00    -0.047 A 
ATOM     27  C   UNL     1       1.052  -3.162  14.094  0.00  0.00    -0.050 A 
ATOM     28 BR   UNL     1      -1.922  -2.379  11.295  0.00  0.00    -0.050 Br
ENDBRANCH  20  22
ENDBRANCH  19  20
ENDBRANCH   7  19
TORSDOF 5
ENDMDL
MODEL 2
REMARK VINA RESULT:    -8.529      3.505      6.561
REMARK INTER + INTRA:         -11.776
REMARK INTER:                 -11.144
REMARK INTRA:                  -0.633
REMARK UNBOUND:                -0.754
REMARK  Name = 17f.sdf
REMARK  5 active torsions:
REMARK  status: ('A' for Active; 'I' for Inactive)
REMARK    1  A    between atoms: N_7  and  C_11
REMARK    2  A    between atoms: C_9  and  C_10
REMARK    3  A    between atoms: C_11  and  C_12
REMARK    4  A    between atoms: C_12  and  C_13
REMARK    5  A    between atoms: N_21  and  N_22
REMARK                            x       y       z     vdW  Elec       q    Type
REMARK                         _______ _______ _______ _____ _____    ______ ____
ROOT
ATOM      1  C   UNL     1       7.277  -2.027  17.011  0.00  0.00    -0.061 A 
ATOM      2  C   UNL     1       8.398  -1.451  16.423  0.00  0.00    -0.060 A 
ATOM      3  C   UNL     1       8.336  -0.892  15.141  0.00  0.00    -0.038 A 
ATOM      4  C   UNL     1       7.099  -0.900  14.477  0.00  0.00    +0.050 A 
ATOM      5  C   UNL     1       5.934  -1.352  15.106  0.00  0.00    +0.009 A 
ATOM      6  C   UNL     1       6.037  -1.970  16.372  0.00  0.00    -0.052 A 
ATOM      7  N   UNL     1       6.737  -0.534  13.194  0.00  0.00    -0.338 N 
ATOM      8  C   UNL     1       5.368  -0.518  13.088  0.00  0.00    +0.015 A 
ATOM      9  C   UNL     1       4.834  -0.986  14.273  0.00  0.00    +0.020 A 
ENDROOT
BRANCH   9  10
ATOM     10  C   UNL     1       3.434  -1.037  14.639  0.00  0.00    +0.055 C 
ATOM     11  N   UNL     1       2.544  -0.542  13.838  0.00  0.00    -0.186 NA
BRANCH  11  12
ATOM     12  N   UNL     1       1.271  -0.535  14.350  0.00  0.00    -0.191 N 
ATOM     13  C   UNL     1       0.585   0.638  14.535  0.00  0.00    +0.317 C 
ATOM     14  O   UNL     1      -0.498   0.699  15.103  0.00  0.00    -0.251 OA
ATOM     15  N   UNL     1       1.210   1.728  14.026  0.00  0.00    -0.312 N 
ATOM     16  H   UNL     1       0.842  -1.389  14.589  0.00  0.00    +0.000 HD
ATOM     17  H   UNL     1       2.082   1.630  13.578  0.00  0.00    +0.000 HD
ATOM     18  H   UNL     1       0.792   2.616  14.104  0.00  0.00    +0.000 HD
ENDBRANCH  11  12
ENDBRANCH   9  10
BRANCH   7  19
ATOM     19  C   UNL     1       7.643  -0.421  12.051  0.00  0.00    +0.086 C 
BRANCH  19  20
ATOM     20  C   UNL     1       7.114  -1.004  10.761  0.00  0.00    +0.183 C 
ATOM     21  O   UNL     1       6.770  -2.174  10.638  0.00  0.00    -0.290 OA
BRANCH  20  22
ATOM     22  C   UNL     1       6.989  -0.088   9.575  0.00  0.00    +0.019 A 
ATOM     23  C   UNL     1       7.453  -0.428   8.297  0.00  0.00    -0.050 A 
ATOM     24  C   UNL     1       7.384   0.501   7.250  0.00  0.00    -0.047 A 
ATOM     25  C   UNL     1       6.846   1.767   7.477  0.00  0.00    +0.018 A 
ATOM     26  C   UNL     1       6.339   2.102   8.728  0.00  0.00    -0.047 A 
ATOM     27  C   UNL     1       6.406   1.174   9.774  0.00  0.00    -0.050 A 
ATOM     28 BR   UNL     1       6.833   3.046   6.085  0.00  0.00    -0.050 Br
ENDBRANCH  20  22
ENDBRANCH  19  20
ENDBRANCH   7  19
TORSDOF 5
ENDMDL
MODEL 3
REMARK VINA RESULT:    -8.519      4.047      7.073
REMARK INTER + INTRA:         -11.764
REMARK INTER:                 -10.798
REMARK INTRA:                  -0.966
REMARK UNBOUND:                -0.754
REMARK  Name = 17f.sdf
REMARK  5 active torsions:
REMARK  status: ('A' for Active; 'I' for Inactive)
REMARK    1  A    between atoms: N_7  and  C_11
REMARK    2  A    between atoms: C_9  and  C_10
REMARK    3  A    between atoms: C_11  and  C_12
REMARK    4  A    between atoms: C_12  and  C_13
REMARK    5  A    between atoms: N_21  and  N_22
REMARK                            x       y       z     vdW  Elec       q    Type
REMARK                         _______ _______ _______ _____ _____    ______ ____
ROOT
ATOM      1  C   UNL     1       1.662  -0.913  16.659  0.00  0.00    -0.061 A 
ATOM      2  C   UNL     1       2.719  -0.100  17.052  0.00  0.00    -0.060 A 
ATOM      3  C   UNL     1       3.594   0.456  16.111  0.00  0.00    -0.038 A 
ATOM      4  C   UNL     1       3.353   0.196  14.753  0.00  0.00    +0.050 A 
ATOM      5  C   UNL     1       2.220  -0.507  14.333  0.00  0.00    +0.009 A 
ATOM      6  C   UNL     1       1.392  -1.111  15.304  0.00  0.00    -0.052 A 
ATOM      7  N   UNL     1       4.074   0.500  13.613  0.00  0.00    -0.338 N 
ATOM      8  C   UNL     1       3.316   0.223  12.502  0.00  0.00    +0.015 A 
ATOM      9  C   UNL     1       2.139  -0.369  12.913  0.00  0.00    +0.020 A 
ENDROOT
BRANCH   9  10
ATOM     10  C   UNL     1       1.006  -0.726  12.086  0.00  0.00    +0.055 C 
ATOM     11  N   UNL     1       0.688  -1.974  11.938  0.00  0.00    -0.186 NA
BRANCH  11  12
ATOM     12  N   UNL     1      -0.320  -2.192  11.034  0.00  0.00    -0.191 N 
ATOM     13  C   UNL     1      -1.577  -2.560  11.444  0.00  0.00    +0.317 C 
ATOM     14  O   UNL     1      -2.466  -2.886  10.669  0.00  0.00    -0.251 OA
ATOM     15  N   UNL     1      -1.749  -2.524  12.788  0.00  0.00    -0.312 N 
ATOM     16  H   UNL     1      -0.138  -2.084  10.072  0.00  0.00    +0.000 HD
ATOM     17  H   UNL     1      -1.003  -2.257  13.373  0.00  0.00    +0.000 HD
ATOM     18  H   UNL     1      -2.620  -2.766  13.179  0.00  0.00    +0.000 HD
ENDBRANCH  11  12
ENDBRANCH   9  10
BRANCH   7  19
ATOM     19  C   UNL     1       5.500   0.825  13.566  0.00  0.00    +0.086 C 
BRANCH  19  20
ATOM     20  C   UNL     1       6.420  -0.368  13.442  0.00  0.00    +0.183 C 
ATOM     21  O   UNL     1       6.776  -0.839  12.368  0.00  0.00    -0.290 OA
BRANCH  20  22
ATOM     22  C   UNL     1       6.934  -0.992  14.710  0.00  0.00    +0.019 A 
ATOM     23  C   UNL     1       6.173  -1.874  15.488  0.00  0.00    -0.050 A 
ATOM     24  C   UNL     1       6.675  -2.358  16.703  0.00  0.00    -0.047 A 
ATOM     25  C   UNL     1       7.941  -1.968  17.139  0.00  0.00    +0.018 A 
ATOM     26  C   UNL     1       8.727  -1.130  16.354  0.00  0.00    -0.047 A 
ATOM     27  C   UNL     1       8.226  -0.648  15.139  0.00  0.00    -0.050 A 
ATOM     28 BR   UNL     1       8.580  -2.554  18.818  0.00  0.00    -0.050 Br
ENDBRANCH  20  22
ENDBRANCH  19  20
ENDBRANCH   7  19
TORSDOF 5
ENDMDL
