MODEL 1
REMARK VINA RESULT:    -8.474      0.000      0.000
REMARK INTER + INTRA:         -11.844
REMARK INTER:                 -10.951
REMARK INTRA:                  -0.893
REMARK UNBOUND:                -0.893
REMARK  Name = 17g.sdf
REMARK  6 active torsions:
REMARK  status: ('A' for Active; 'I' for Inactive)
REMARK    1  A    between atoms: N_7  and  C_16
REMARK    2  A    between atoms: C_9  and  C_10
REMARK    3  A    between atoms: N_11  and  N_12
REMARK    4  A    between atoms: C_16  and  C_17
REMARK    5  A    between atoms: C_20  and  O_23
REMARK    6  A    between atoms: O_23  and  C_24
REMARK                            x       y       z     vdW  Elec       q    Type
REMARK                         _______ _______ _______ _____ _____    ______ ____
ROOT
ATOM      1  C   UNL     1       4.043  -3.138  15.980  0.00  0.00    -0.061 A 
ATOM      2  C   UNL     1       5.264  -2.477  16.042  0.00  0.00    -0.060 A 
ATOM      3  C   UNL     1       5.507  -1.341  15.264  0.00  0.00    -0.038 A 
ATOM      4  C   UNL     1       4.484  -0.875  14.420  0.00  0.00    +0.050 A 
ATOM      5  C   UNL     1       3.230  -1.498  14.378  0.00  0.00    +0.009 A 
ATOM      6  C   UNL     1       3.017  -2.654  15.163  0.00  0.00    -0.052 A 
ATOM      7  N   UNL     1       4.446   0.169  13.515  0.00  0.00    -0.342 N 
ATOM      8  C   UNL     1       3.189   0.264  12.971  0.00  0.00    +0.015 A 
ATOM      9  C   UNL     1       2.403  -0.750  13.484  0.00  0.00    +0.020 A 
ENDROOT
BRANCH   9  10
ATOM     10  C   UNL     1       1.011  -0.984  13.166  0.00  0.00    +0.055 C 
ATOM     11  N   UNL     1       0.697  -1.974  12.394  0.00  0.00    -0.186 NA
BRANCH  11  12
ATOM     12  N   UNL     1      -0.638  -2.110  12.130  0.00  0.00    -0.191 N 
ATOM     13  C   UNL     1      -1.086  -2.569  10.912  0.00  0.00    +0.317 C 
ATOM     14  O   UNL     1      -2.269  -2.739  10.655  0.00  0.00    -0.251 OA
ATOM     15  N   UNL     1      -0.096  -2.812  10.018  0.00  0.00    -0.312 N 
ATOM     16  H   UNL     1      -1.293  -1.875  12.826  0.00  0.00    +0.000 HD
ATOM     17  H   UNL     1       0.843  -2.660  10.271  0.00  0.00    +0.000 HD
ATOM     18  H   UNL     1      -0.317  -3.138   9.116  0.00  0.00    +0.000 HD
ENDBRANCH  11  12
ENDBRANCH   9  10
BRANCH   7  19
ATOM     19  C   UNL     1       5.576   0.990  13.083  0.00  0.00    +0.048 C 
BRANCH  19  20
ATOM     20  C   UNL     1       6.182   0.481  11.801  0.00  0.00    -0.028 A 
ATOM     21  C   UNL     1       6.343   1.337  10.707  0.00  0.00    -0.053 A 
ATOM     22  C   UNL     1       6.777   0.839   9.478  0.00  0.00    -0.020 A 
ATOM     23  C   UNL     1       7.085  -0.513   9.323  0.00  0.00    +0.120 A 
ATOM     24  C   UNL     1       6.992  -1.362  10.422  0.00  0.00    -0.020 A 
ATOM     25  C   UNL     1       6.541  -0.868  11.655  0.00  0.00    -0.053 A 
BRANCH  23  26
ATOM     26  O   UNL     1       7.391  -0.877   8.042  0.00  0.00    -0.495 OA
ATOM     27  C   UNL     1       8.208   0.006   7.289  0.00  0.00    +0.079 C 
ENDBRANCH  23  26
ENDBRANCH  19  20
ENDBRANCH   7  19
TORSDOF 5
ENDMDL
MODEL 2
REMARK VINA RESULT:    -8.355      2.484      6.640
REMARK INTER + INTRA:         -11.691
REMARK INTER:                 -10.924
REMARK INTRA:                  -0.767
REMARK UNBOUND:                -0.893
REMARK  Name = 17g.sdf
REMARK  6 active torsions:
REMARK  status: ('A' for Active; 'I' for Inactive)
REMARK    1  A    between atoms: N_7  and  C_16
REMARK    2  A    between atoms: C_9  and  C_10
REMARK    3  A    between atoms: N_11  and  N_12
REMARK    4  A    between atoms: C_16  and  C_17
REMARK    5  A    between atoms: C_20  and  O_23
REMARK    6  A    between atoms: O_23  and  C_24
REMARK                            x       y       z     vdW  Elec       q    Type
REMARK                         _______ _______ _______ _____ _____    ______ ____
ROOT
ATOM      1  C   UNL     1       7.947  -1.375  15.186  0.00  0.00    -0.061 A 
ATOM      2  C   UNL     1       6.846  -1.564  16.013  0.00  0.00    -0.060 A 
ATOM      3  C   UNL     1       5.566  -1.176  15.606  0.00  0.00    -0.038 A 
ATOM      4  C   UNL     1       5.415  -0.595  14.334  0.00  0.00    +0.050 A 
ATOM      5  C   UNL     1       6.504  -0.439  13.467  0.00  0.00    +0.009 A 
ATOM      6  C   UNL     1       7.789  -0.826  13.912  0.00  0.00    -0.052 A 
ATOM      7  N   UNL     1       4.308  -0.077  13.688  0.00  0.00    -0.342 N 
ATOM      8  C   UNL     1       4.656   0.324  12.423  0.00  0.00    +0.015 A 
ATOM      9  C   UNL     1       6.010   0.112  12.244  0.00  0.00    +0.020 A 
ENDROOT
BRANCH   9  10
ATOM     10  C   UNL     1       6.759   0.395  11.039  0.00  0.00    +0.055 C 
ATOM     11  N   UNL     1       6.662   1.565  10.495  0.00  0.00    -0.186 NA
BRANCH  11  12
ATOM     12  N   UNL     1       7.388   1.740   9.349  0.00  0.00    -0.191 N 
ATOM     13  C   UNL     1       6.851   2.365   8.246  0.00  0.00    +0.317 C 
ATOM     14  O   UNL     1       7.482   2.571   7.221  0.00  0.00    -0.251 OA
ATOM     15  N   UNL     1       5.553   2.728   8.398  0.00  0.00    -0.312 N 
ATOM     16  H   UNL     1       8.315   1.411   9.311  0.00  0.00    +0.000 HD
ATOM     17  H   UNL     1       5.086   2.541   9.244  0.00  0.00    +0.000 HD
ATOM     18  H   UNL     1       5.079   3.178   7.662  0.00  0.00    +0.000 HD
ENDBRANCH  11  12
ENDBRANCH   9  10
BRANCH   7  19
ATOM     19  C   UNL     1       2.985   0.144  14.269  0.00  0.00    +0.048 C 
BRANCH  19  20
ATOM     20  C   UNL     1       1.971  -0.843  13.751  0.00  0.00    -0.028 A 
ATOM     21  C   UNL     1       1.179  -0.526  12.644  0.00  0.00    -0.053 A 
ATOM     22  C   UNL     1       0.148  -1.380  12.245  0.00  0.00    -0.020 A 
ATOM     23  C   UNL     1      -0.092  -2.575  12.924  0.00  0.00    +0.120 A 
ATOM     24  C   UNL     1       0.734  -2.933  13.986  0.00  0.00    -0.020 A 
ATOM     25  C   UNL     1       1.759  -2.070  14.399  0.00  0.00    -0.053 A 
BRANCH  23  26
ATOM     26  O   UNL     1      -1.196  -3.255  12.492  0.00  0.00    -0.495 OA
ATOM     27  C   UNL     1      -1.927  -2.695  11.411  0.00  0.00    +0.079 C 
ENDBRANCH  23  26
ENDBRANCH  19  20
ENDBRANCH   7  19
TORSDOF 5
ENDMDL
MODEL 3
REMARK VINA RESULT:    -8.003      3.002      6.632
REMARK INTER + INTRA:         -11.235
REMARK INTER:                 -10.459
REMARK INTRA:                  -0.777
REMARK UNBOUND:                -0.893
REMARK  Name = 17g.sdf
REMARK  6 active torsions:
REMARK  status: ('A' for Active; 'I' for Inactive)
REMARK    1  A    between atoms: N_7  and  C_16
REMARK    2  A    between atoms: C_9  and  C_10
REMARK    3  A    between atoms: N_11  and  N_12
REMARK    4  A    between atoms: C_16  and  C_17
REMARK    5  A    between atoms: C_20  and  O_23
REMARK    6  A    between atoms: O_23  and  C_24
REMARK                            x       y       z     vdW  Elec       q    Type
REMARK                         _______ _______ _______ _____ _____    ______ ____
ROOT
ATOM      1  C   UNL     1       9.105  -1.961  16.728  0.00  0.00    -0.061 A 
ATOM      2  C   UNL     1       8.160  -2.051  17.744  0.00  0.00    -0.060 A 
ATOM      3  C   UNL     1       6.835  -1.662  17.530  0.00  0.00    -0.038 A 
ATOM      4  C   UNL     1       6.475  -1.182  16.258  0.00  0.00    +0.050 A 
ATOM      5  C   UNL     1       7.399  -1.128  15.208  0.00  0.00    +0.009 A 
ATOM      6  C   UNL     1       8.736  -1.513  15.457  0.00  0.00    -0.052 A 
ATOM      7  N   UNL     1       5.280  -0.688  15.769  0.00  0.00    -0.342 N 
ATOM      8  C   UNL     1       5.410  -0.402  14.434  0.00  0.00    +0.015 A 
ATOM      9  C   UNL     1       6.709  -0.665  14.045  0.00  0.00    +0.020 A 
ENDROOT
BRANCH   9  10
ATOM     10  C   UNL     1       7.243  -0.502  12.710  0.00  0.00    +0.055 C 
ATOM     11  N   UNL     1       6.427  -0.403  11.710  0.00  0.00    -0.186 NA
BRANCH  11  12
ATOM     12  N   UNL     1       7.017  -0.272  10.484  0.00  0.00    -0.191 N 
ATOM     13  C   UNL     1       6.816   0.846   9.706  0.00  0.00    +0.317 C 
ATOM     14  O   UNL     1       7.357   1.013   8.623  0.00  0.00    -0.251 OA
ATOM     15  N   UNL     1       5.957   1.745  10.247  0.00  0.00    -0.312 N 
ATOM     16  H   UNL     1       7.599  -0.992  10.149  0.00  0.00    +0.000 HD
ATOM     17  H   UNL     1       5.546   1.567  11.123  0.00  0.00    +0.000 HD
ATOM     18  H   UNL     1       5.745   2.576   9.763  0.00  0.00    +0.000 HD
ENDBRANCH  11  12
ENDBRANCH   9  10
BRANCH   7  19
ATOM     19  C   UNL     1       4.079  -0.383  16.547  0.00  0.00    +0.048 C 
BRANCH  19  20
ATOM     20  C   UNL     1       2.829  -0.883  15.870  0.00  0.00    -0.028 A 
ATOM     21  C   UNL     1       2.669  -2.245  15.600  0.00  0.00    -0.053 A 
ATOM     22  C   UNL     1       1.578  -2.693  14.853  0.00  0.00    -0.020 A 
ATOM     23  C   UNL     1       0.614  -1.798  14.388  0.00  0.00    +0.120 A 
ATOM     24  C   UNL     1       0.729  -0.448  14.707  0.00  0.00    -0.020 A 
ATOM     25  C   UNL     1       1.832   0.008  15.443  0.00  0.00    -0.053 A 
BRANCH  23  26
ATOM     26  O   UNL     1      -0.335  -2.362  13.583  0.00  0.00    -0.495 OA
ATOM     27  C   UNL     1       0.012  -3.559  12.902  0.00  0.00    +0.079 C 
ENDBRANCH  23  26
ENDBRANCH  19  20
ENDBRANCH   7  19
TORSDOF 5
ENDMDL
