MODEL 1
REMARK VINA RESULT:    -8.218      0.000      0.000
REMARK INTER + INTRA:         -10.001
REMARK INTER:                  -9.659
REMARK INTRA:                  -0.342
REMARK UNBOUND:                -0.342
REMARK  Name = 1a.sdf
REMARK  3 active torsions:
REMARK  status: ('A' for Active; 'I' for Inactive)
REMARK    1  A    between atoms: N_7  and  C_12
REMARK    2  A    between atoms: C_9  and  C_10
REMARK    3  A    between atoms: C_12  and  C_13
REMARK                            x       y       z     vdW  Elec       q    Type
REMARK                         _______ _______ _______ _____ _____    ______ ____
ROOT
ATOM      1  C   UNL     1       5.621  -2.763  17.485  0.00  0.00    -0.061 A 
ATOM      2  C   UNL     1       4.556  -2.877  16.598  0.00  0.00    -0.060 A 
ATOM      3  C   UNL     1       4.614  -2.297  15.327  0.00  0.00    -0.038 A 
ATOM      4  C   UNL     1       5.780  -1.602  14.962  0.00  0.00    +0.050 A 
ATOM      5  C   UNL     1       6.881  -1.511  15.823  0.00  0.00    +0.010 A 
ATOM      6  C   UNL     1       6.787  -2.091  17.108  0.00  0.00    -0.052 A 
ATOM      7  N   UNL     1       6.105  -0.901  13.814  0.00  0.00    -0.342 N 
ATOM      8  C   UNL     1       7.395  -0.439  13.903  0.00  0.00    +0.016 A 
ATOM      9  C   UNL     1       7.907  -0.794  15.134  0.00  0.00    +0.039 A 
ENDROOT
BRANCH   9  10
ATOM     10  C   UNL     1       9.242  -0.479  15.606  0.00  0.00    +0.152 C 
ATOM     11  O   UNL     1      10.062  -1.319  15.967  0.00  0.00    -0.296 OA
ENDBRANCH   9  10
BRANCH   7  12
ATOM     12  C   UNL     1       5.203  -0.577  12.710  0.00  0.00    +0.048 C 
BRANCH  12  13
ATOM     13  C   UNL     1       5.958  -0.293  11.436  0.00  0.00    -0.028 A 
ATOM     14  C   UNL     1       6.091   1.023  10.967  0.00  0.00    -0.056 A 
ATOM     15  C   UNL     1       6.697   1.280   9.736  0.00  0.00    -0.047 A 
ATOM     16  C   UNL     1       7.185   0.222   8.973  0.00  0.00    +0.018 A 
ATOM     17  C   UNL     1       7.108  -1.085   9.445  0.00  0.00    -0.047 A 
ATOM     18  C   UNL     1       6.498  -1.341  10.676  0.00  0.00    -0.056 A 
ATOM     19 BR   UNL     1       7.927   0.564   7.268  0.00  0.00    -0.050 Br
ENDBRANCH  12  13
ENDBRANCH   7  12
TORSDOF 3
ENDMDL
MODEL 2
REMARK VINA RESULT:    -7.326      3.422      5.304
REMARK INTER + INTRA:          -8.953
REMARK INTER:                  -8.432
REMARK INTRA:                  -0.521
REMARK UNBOUND:                -0.342
REMARK  Name = 1a.sdf
REMARK  3 active torsions:
REMARK  status: ('A' for Active; 'I' for Inactive)
REMARK    1  A    between atoms: N_7  and  C_12
REMARK    2  A    between atoms: C_9  and  C_10
REMARK    3  A    between atoms: C_12  and  C_13
REMARK                            x       y       z     vdW  Elec       q    Type
REMARK                         _______ _______ _______ _____ _____    ______ ____
ROOT
ATOM      1  C   UNL     1       9.257  -1.647  16.437  0.00  0.00    -0.061 A 
ATOM      2  C   UNL     1       8.279  -1.805  17.412  0.00  0.00    -0.060 A 
ATOM      3  C   UNL     1       6.943  -1.485  17.148  0.00  0.00    -0.038 A 
ATOM      4  C   UNL     1       6.610  -1.008  15.869  0.00  0.00    +0.050 A 
ATOM      5  C   UNL     1       7.572  -0.880  14.859  0.00  0.00    +0.010 A 
ATOM      6  C   UNL     1       8.917  -1.194  15.159  0.00  0.00    -0.052 A 
ATOM      7  N   UNL     1       5.407  -0.577  15.338  0.00  0.00    -0.342 N 
ATOM      8  C   UNL     1       5.574  -0.255  14.013  0.00  0.00    +0.016 A 
ATOM      9  C   UNL     1       6.901  -0.427  13.681  0.00  0.00    +0.039 A 
ENDROOT
BRANCH   9  10
ATOM     10  C   UNL     1       7.473  -0.182  12.371  0.00  0.00    +0.152 C 
ATOM     11  O   UNL     1       7.170  -0.807  11.358  0.00  0.00    -0.296 OA
ENDBRANCH   9  10
BRANCH   7  12
ATOM     12  C   UNL     1       4.160  -0.367  16.072  0.00  0.00    +0.048 C 
BRANCH  12  13
ATOM     13  C   UNL     1       2.994  -1.044  15.398  0.00  0.00    -0.028 A 
ATOM     14  C   UNL     1       2.893  -2.444  15.389  0.00  0.00    -0.056 A 
ATOM     15  C   UNL     1       1.872  -3.077  14.678  0.00  0.00    -0.047 A 
ATOM     16  C   UNL     1       0.939  -2.313  13.982  0.00  0.00    +0.018 A 
ATOM     17  C   UNL     1       0.993  -0.923  14.021  0.00  0.00    -0.047 A 
ATOM     18  C   UNL     1       2.017  -0.290  14.731  0.00  0.00    -0.056 A 
ATOM     19 BR   UNL     1      -0.391  -3.174  12.948  0.00  0.00    -0.050 Br
ENDBRANCH  12  13
ENDBRANCH   7  12
TORSDOF 3
ENDMDL
MODEL 3
REMARK VINA RESULT:    -7.133      3.453      5.640
REMARK INTER + INTRA:          -8.726
REMARK INTER:                  -8.206
REMARK INTRA:                  -0.520
REMARK UNBOUND:                -0.342
REMARK  Name = 1a.sdf
REMARK  3 active torsions:
REMARK  status: ('A' for Active; 'I' for Inactive)
REMARK    1  A    between atoms: N_7  and  C_12
REMARK    2  A    between atoms: C_9  and  C_10
REMARK    3  A    between atoms: C_12  and  C_13
REMARK                            x       y       z     vdW  Elec       q    Type
REMARK                         _______ _______ _______ _____ _____    ______ ____
ROOT
ATOM      1  C   UNL     1       7.032   0.579  11.767  0.00  0.00    -0.061 A 
ATOM      2  C   UNL     1       5.697   0.199  11.695  0.00  0.00    -0.060 A 
ATOM      3  C   UNL     1       5.100  -0.529  12.730  0.00  0.00    -0.038 A 
ATOM      4  C   UNL     1       5.881  -0.859  13.850  0.00  0.00    +0.050 A 
ATOM      5  C   UNL     1       7.216  -0.450  13.963  0.00  0.00    +0.010 A 
ATOM      6  C   UNL     1       7.797   0.269  12.894  0.00  0.00    -0.052 A 
ATOM      7  N   UNL     1       5.587  -1.593  14.986  0.00  0.00    -0.342 N 
ATOM      8  C   UNL     1       6.669  -1.593  15.832  0.00  0.00    +0.016 A 
ATOM      9  C   UNL     1       7.698  -0.898  15.231  0.00  0.00    +0.039 A 
ENDROOT
BRANCH   9  10
ATOM     10  C   UNL     1       9.010  -0.684  15.810  0.00  0.00    +0.152 C 
ATOM     11  O   UNL     1      10.066  -0.868  15.211  0.00  0.00    -0.296 OA
ENDBRANCH   9  10
BRANCH   7  12
ATOM     12  C   UNL     1       4.369  -2.365  15.229  0.00  0.00    +0.048 C 
BRANCH  12  13
ATOM     13  C   UNL     1       3.150  -1.480  15.298  0.00  0.00    -0.028 A 
ATOM     14  C   UNL     1       3.042  -0.495  16.291  0.00  0.00    -0.056 A 
ATOM     15  C   UNL     1       1.871   0.254  16.423  0.00  0.00    -0.047 A 
ATOM     16  C   UNL     1       0.807   0.031  15.553  0.00  0.00    +0.018 A 
ATOM     17  C   UNL     1       0.915  -0.907  14.530  0.00  0.00    -0.047 A 
ATOM     18  C   UNL     1       2.086  -1.659  14.401  0.00  0.00    -0.056 A 
ATOM     19 BR   UNL     1      -0.809   0.985  15.787  0.00  0.00    -0.050 Br
ENDBRANCH  12  13
ENDBRANCH   7  12
TORSDOF 3
ENDMDL
