MODEL 1
REMARK VINA RESULT:    -8.327      0.000      0.000
REMARK INTER + INTRA:         -10.156
REMARK INTER:                  -9.787
REMARK INTRA:                  -0.369
REMARK UNBOUND:                -0.369
REMARK  Name = 1c.sdf
REMARK  3 active torsions:
REMARK  status: ('A' for Active; 'I' for Inactive)
REMARK    1  A    between atoms: N_7  and  C_12
REMARK    2  A    between atoms: C_9  and  C_10
REMARK    3  A    between atoms: C_12  and  C_13
REMARK                            x       y       z     vdW  Elec       q    Type
REMARK                         _______ _______ _______ _____ _____    ______ ____
ROOT
ATOM      1  C   UNL     1       5.345  -2.725  17.437  0.00  0.00    -0.061 A 
ATOM      2  C   UNL     1       4.356  -2.882  16.470  0.00  0.00    -0.060 A 
ATOM      3  C   UNL     1       4.503  -2.342  15.183  0.00  0.00    -0.038 A 
ATOM      4  C   UNL     1       5.664  -1.605  14.891  0.00  0.00    +0.050 A 
ATOM      5  C   UNL     1       6.699  -1.491  15.834  0.00  0.00    +0.010 A 
ATOM      6  C   UNL     1       6.527  -2.054  17.118  0.00  0.00    -0.052 A 
ATOM      7  N   UNL     1       6.054  -0.874  13.775  0.00  0.00    -0.342 N 
ATOM      8  C   UNL     1       7.335  -0.406  13.962  0.00  0.00    +0.016 A 
ATOM      9  C   UNL     1       7.762  -0.777  15.220  0.00  0.00    +0.039 A 
ENDROOT
BRANCH   9  10
ATOM     10  C   UNL     1       9.063  -0.464  15.788  0.00  0.00    +0.152 C 
ATOM     11  O   UNL     1      10.031  -1.210  15.725  0.00  0.00    -0.296 OA
ENDBRANCH   9  10
BRANCH   7  12
ATOM     12  C   UNL     1       5.233  -0.476  12.626  0.00  0.00    +0.048 C 
BRANCH  12  13
ATOM     13  C   UNL     1       6.058  -0.256  11.381  0.00  0.00    -0.028 A 
ATOM     14  C   UNL     1       6.213   1.036  10.863  0.00  0.00    -0.055 A 
ATOM     15  C   UNL     1       6.783   1.231   9.604  0.00  0.00    -0.043 A 
ATOM     16  C   UNL     1       7.240   0.136   8.874  0.00  0.00    +0.041 A 
ATOM     17  C   UNL     1       7.202  -1.142   9.425  0.00  0.00    -0.043 A 
ATOM     18  C   UNL     1       6.615  -1.338  10.680  0.00  0.00    -0.055 A 
ATOM     19 CL   UNL     1       7.795   0.359   7.261  0.00  0.00    -0.084 Cl
ENDBRANCH  12  13
ENDBRANCH   7  12
TORSDOF 3
ENDMDL
MODEL 2
REMARK VINA RESULT:    -7.390      2.667      3.771
REMARK INTER + INTRA:          -9.054
REMARK INTER:                  -8.419
REMARK INTRA:                  -0.636
REMARK UNBOUND:                -0.369
REMARK  Name = 1c.sdf
REMARK  3 active torsions:
REMARK  status: ('A' for Active; 'I' for Inactive)
REMARK    1  A    between atoms: N_7  and  C_12
REMARK    2  A    between atoms: C_9  and  C_10
REMARK    3  A    between atoms: C_12  and  C_13
REMARK                            x       y       z     vdW  Elec       q    Type
REMARK                         _______ _______ _______ _____ _____    ______ ____
ROOT
ATOM      1  C   UNL     1       3.980  -3.217  15.992  0.00  0.00    -0.061 A 
ATOM      2  C   UNL     1       5.284  -2.742  16.083  0.00  0.00    -0.060 A 
ATOM      3  C   UNL     1       5.708  -1.631  15.339  0.00  0.00    -0.038 A 
ATOM      4  C   UNL     1       4.794  -1.016  14.466  0.00  0.00    +0.050 A 
ATOM      5  C   UNL     1       3.457  -1.443  14.409  0.00  0.00    +0.010 A 
ATOM      6  C   UNL     1       3.056  -2.558  15.179  0.00  0.00    -0.052 A 
ATOM      7  N   UNL     1       4.928   0.010  13.538  0.00  0.00    -0.342 N 
ATOM      8  C   UNL     1       3.696   0.296  12.995  0.00  0.00    +0.016 A 
ATOM      9  C   UNL     1       2.767  -0.579  13.518  0.00  0.00    +0.039 A 
ENDROOT
BRANCH   9  10
ATOM     10  C   UNL     1       1.353  -0.597  13.184  0.00  0.00    +0.152 C 
ATOM     11  O   UNL     1       0.848  -1.391  12.401  0.00  0.00    -0.296 OA
ENDBRANCH   9  10
BRANCH   7  12
ATOM     12  C   UNL     1       6.166   0.619  13.040  0.00  0.00    +0.048 C 
BRANCH  12  13
ATOM     13  C   UNL     1       6.417   0.299  11.586  0.00  0.00    -0.028 A 
ATOM     14  C   UNL     1       6.763  -1.004  11.205  0.00  0.00    -0.055 A 
ATOM     15  C   UNL     1       7.208  -1.268   9.909  0.00  0.00    -0.043 A 
ATOM     16  C   UNL     1       7.270  -0.237   8.975  0.00  0.00    +0.041 A 
ATOM     17  C   UNL     1       6.818   1.038   9.303  0.00  0.00    -0.043 A 
ATOM     18  C   UNL     1       6.387   1.306  10.607  0.00  0.00    -0.055 A 
ATOM     19 CL   UNL     1       7.967  -0.528   7.429  0.00  0.00    -0.084 Cl
ENDBRANCH  12  13
ENDBRANCH   7  12
TORSDOF 3
ENDMDL
MODEL 3
REMARK VINA RESULT:    -7.310      3.347      5.314
REMARK INTER + INTRA:          -8.961
REMARK INTER:                  -8.387
REMARK INTRA:                  -0.573
REMARK UNBOUND:                -0.369
REMARK  Name = 1c.sdf
REMARK  3 active torsions:
REMARK  status: ('A' for Active; 'I' for Inactive)
REMARK    1  A    between atoms: N_7  and  C_12
REMARK    2  A    between atoms: C_9  and  C_10
REMARK    3  A    between atoms: C_12  and  C_13
REMARK                            x       y       z     vdW  Elec       q    Type
REMARK                         _______ _______ _______ _____ _____    ______ ____
ROOT
ATOM      1  C   UNL     1       9.084  -1.613  16.428  0.00  0.00    -0.061 A 
ATOM      2  C   UNL     1       8.058  -1.804  17.348  0.00  0.00    -0.060 A 
ATOM      3  C   UNL     1       6.724  -1.514  17.022  0.00  0.00    -0.038 A 
ATOM      4  C   UNL     1       6.441  -0.990  15.748  0.00  0.00    +0.050 A 
ATOM      5  C   UNL     1       7.456  -0.850  14.787  0.00  0.00    +0.010 A 
ATOM      6  C   UNL     1       8.788  -1.161  15.140  0.00  0.00    -0.052 A 
ATOM      7  N   UNL     1       5.270  -0.515  15.169  0.00  0.00    -0.342 N 
ATOM      8  C   UNL     1       5.513  -0.188  13.855  0.00  0.00    +0.016 A 
ATOM      9  C   UNL     1       6.850  -0.391  13.587  0.00  0.00    +0.039 A 
ENDROOT
BRANCH   9  10
ATOM     10  C   UNL     1       7.493  -0.154  12.306  0.00  0.00    +0.152 C 
ATOM     11  O   UNL     1       7.136  -0.676  11.258  0.00  0.00    -0.296 OA
ENDBRANCH   9  10
BRANCH   7  12
ATOM     12  C   UNL     1       3.995  -0.217  15.830  0.00  0.00    +0.048 C 
BRANCH  12  13
ATOM     13  C   UNL     1       2.853  -1.023  15.261  0.00  0.00    -0.028 A 
ATOM     14  C   UNL     1       2.827  -2.414  15.425  0.00  0.00    -0.055 A 
ATOM     15  C   UNL     1       1.905  -3.194  14.726  0.00  0.00    -0.043 A 
ATOM     16  C   UNL     1       0.976  -2.582  13.889  0.00  0.00    +0.041 A 
ATOM     17  C   UNL     1       0.910  -1.193  13.805  0.00  0.00    -0.043 A 
ATOM     18  C   UNL     1       1.846  -0.413  14.494  0.00  0.00    -0.055 A 
ATOM     19 CL   UNL     1      -0.055  -3.548  12.907  0.00  0.00    -0.084 Cl
ENDBRANCH  12  13
ENDBRANCH   7  12
TORSDOF 3
ENDMDL
