MODEL 1
REMARK VINA RESULT:    -9.228      0.000      0.000
REMARK INTER + INTRA:         -13.868
REMARK INTER:                 -13.004
REMARK INTRA:                  -0.864
REMARK UNBOUND:                -0.864
REMARK  Name = 23c.sdf
REMARK  9 active torsions:
REMARK  status: ('A' for Active; 'I' for Inactive)
REMARK    1  A    between atoms: N_7  and  C_12
REMARK    2  A    between atoms: C_9  and  C_10
REMARK    3  A    between atoms: N_11  and  N_19
REMARK    4  A    between atoms: C_12  and  C_13
REMARK    5  A    between atoms: C_20  and  C_22
REMARK    6  A    between atoms: C_24  and  O_30
REMARK    7  A    between atoms: C_25  and  O_29
REMARK    8  A    between atoms: O_29  and  C_32
REMARK    9  A    between atoms: O_30  and  C_31
REMARK                            x       y       z     vdW  Elec       q    Type
REMARK                         _______ _______ _______ _____ _____    ______ ____
ROOT
ATOM      1  C   UNL     1       8.845  -1.048  16.572  0.00  0.00    -0.061 A 
ATOM      2  C   UNL     1       8.185  -1.969  17.376  0.00  0.00    -0.060 A 
ATOM      3  C   UNL     1       6.873  -2.361  17.091  0.00  0.00    -0.038 A 
ATOM      4  C   UNL     1       6.240  -1.808  15.965  0.00  0.00    +0.050 A 
ATOM      5  C   UNL     1       6.903  -0.911  15.116  0.00  0.00    +0.009 A 
ATOM      6  C   UNL     1       8.221  -0.520  15.439  0.00  0.00    -0.052 A 
ATOM      7  N   UNL     1       4.961  -1.965  15.464  0.00  0.00    -0.342 N 
ATOM      8  C   UNL     1       4.829  -1.255  14.296  0.00  0.00    +0.015 A 
ATOM      9  C   UNL     1       6.014  -0.594  14.040  0.00  0.00    +0.020 A 
ENDROOT
BRANCH   9  10
ATOM     10  C   UNL     1       6.285   0.252  12.898  0.00  0.00    +0.055 C 
ATOM     11  N   UNL     1       5.343   0.513  12.052  0.00  0.00    -0.187 NA
BRANCH  11  12
ATOM     12  N   UNL     1       5.689   1.317  10.999  0.00  0.00    -0.203 N 
ATOM     13  C   UNL     1       6.398   0.780   9.933  0.00  0.00    +0.263 C 
ATOM     14  O   UNL     1       6.741  -0.396   9.831  0.00  0.00    -0.268 OA
ATOM     15  H   UNL     1       5.437   2.269  10.997  0.00  0.00    +0.000 HD
BRANCH  13  16
ATOM     16  C   UNL     1       6.708   1.719   8.818  0.00  0.00    +0.042 A 
ATOM     17  C   UNL     1       5.708   2.426   8.139  0.00  0.00    -0.004 A 
ATOM     18  C   UNL     1       6.045   3.274   7.074  0.00  0.00    +0.162 A 
ATOM     19  C   UNL     1       7.397   3.433   6.702  0.00  0.00    +0.162 A 
ATOM     20  C   UNL     1       8.393   2.756   7.414  0.00  0.00    -0.016 A 
ATOM     21  C   UNL     1       8.049   1.903   8.465  0.00  0.00    -0.046 A 
BRANCH  19  22
ATOM     22  O   UNL     1       7.636   4.266   5.637  0.00  0.00    -0.491 OA
ATOM     23  C   UNL     1       8.294   5.498   5.895  0.00  0.00    +0.079 C 
ENDBRANCH  19  22
BRANCH  18  24
ATOM     24  O   UNL     1       5.132   3.984   6.333  0.00  0.00    -0.491 OA
ATOM     25  C   UNL     1       3.934   3.330   5.942  0.00  0.00    +0.079 C 
ENDBRANCH  18  24
ENDBRANCH  13  16
ENDBRANCH  11  12
ENDBRANCH   9  10
BRANCH   7  26
ATOM     26  C   UNL     1       3.862  -2.684  16.107  0.00  0.00    +0.048 C 
BRANCH  26  27
ATOM     27  C   UNL     1       2.619  -1.833  16.198  0.00  0.00    -0.028 A 
ATOM     28  C   UNL     1       1.475  -2.157  15.454  0.00  0.00    -0.055 A 
ATOM     29  C   UNL     1       0.367  -1.309  15.451  0.00  0.00    -0.043 A 
ATOM     30  C   UNL     1       0.389  -0.137  16.203  0.00  0.00    +0.041 A 
ATOM     31  C   UNL     1       1.496   0.175  16.989  0.00  0.00    -0.043 A 
ATOM     32  C   UNL     1       2.608  -0.672  16.988  0.00  0.00    -0.055 A 
ATOM     33 CL   UNL     1      -0.950   0.942  16.143  0.00  0.00    -0.084 Cl
ENDBRANCH  26  27
ENDBRANCH   7  26
TORSDOF 7
ENDMDL
MODEL 2
REMARK VINA RESULT:    -8.341      4.968      9.464
REMARK INTER + INTRA:         -12.619
REMARK INTER:                 -11.915
REMARK INTRA:                  -0.703
REMARK UNBOUND:                -0.864
REMARK  Name = 23c.sdf
REMARK  9 active torsions:
REMARK  status: ('A' for Active; 'I' for Inactive)
REMARK    1  A    between atoms: N_7  and  C_12
REMARK    2  A    between atoms: C_9  and  C_10
REMARK    3  A    between atoms: N_11  and  N_19
REMARK    4  A    between atoms: C_12  and  C_13
REMARK    5  A    between atoms: C_20  and  C_22
REMARK    6  A    between atoms: C_24  and  O_30
REMARK    7  A    between atoms: C_25  and  O_29
REMARK    8  A    between atoms: O_29  and  C_32
REMARK    9  A    between atoms: O_30  and  C_31
REMARK                            x       y       z     vdW  Elec       q    Type
REMARK                         _______ _______ _______ _____ _____    ______ ____
ROOT
ATOM      1  C   UNL     1       6.924  -2.351  17.994  0.00  0.00    -0.061 A 
ATOM      2  C   UNL     1       8.193  -2.190  17.451  0.00  0.00    -0.060 A 
ATOM      3  C   UNL     1       8.375  -1.530  16.232  0.00  0.00    -0.038 A 
ATOM      4  C   UNL     1       7.242  -1.023  15.572  0.00  0.00    +0.050 A 
ATOM      5  C   UNL     1       5.959  -1.135  16.122  0.00  0.00    +0.009 A 
ATOM      6  C   UNL     1       5.804  -1.822  17.347  0.00  0.00    -0.052 A 
ATOM      7  N   UNL     1       7.104  -0.376  14.357  0.00  0.00    -0.342 N 
ATOM      8  C   UNL     1       5.792  -0.020  14.168  0.00  0.00    +0.015 A 
ATOM      9  C   UNL     1       5.050  -0.464  15.244  0.00  0.00    +0.020 A 
ENDROOT
BRANCH   9  10
ATOM     10  C   UNL     1       3.627  -0.277  15.431  0.00  0.00    +0.055 C 
ATOM     11  N   UNL     1       3.198   0.629  16.248  0.00  0.00    -0.187 NA
BRANCH  11  12
ATOM     12  N   UNL     1       1.838   0.733  16.367  0.00  0.00    -0.203 N 
ATOM     13  C   UNL     1       1.181   0.010  17.355  0.00  0.00    +0.263 C 
ATOM     14  O   UNL     1       1.726  -0.726  18.173  0.00  0.00    -0.268 OA
ATOM     15  H   UNL     1       1.329   1.315  15.758  0.00  0.00    +0.000 HD
BRANCH  13  16
ATOM     16  C   UNL     1      -0.295   0.204  17.431  0.00  0.00    +0.042 A 
ATOM     17  C   UNL     1      -1.095   0.291  16.284  0.00  0.00    -0.004 A 
ATOM     18  C   UNL     1      -2.475   0.506  16.405  0.00  0.00    +0.162 A 
ATOM     19  C   UNL     1      -3.062   0.613  17.684  0.00  0.00    +0.162 A 
ATOM     20  C   UNL     1      -2.261   0.481  18.823  0.00  0.00    -0.016 A 
ATOM     21  C   UNL     1      -0.885   0.280  18.696  0.00  0.00    -0.046 A 
BRANCH  19  22
ATOM     22  O   UNL     1      -4.415   0.843  17.710  0.00  0.00    -0.491 OA
ATOM     23  C   UNL     1      -4.900   1.843  18.595  0.00  0.00    +0.079 C 
ENDBRANCH  19  22
BRANCH  18  24
ATOM     24  O   UNL     1      -3.333   0.633  15.339  0.00  0.00    -0.491 OA
ATOM     25  C   UNL     1      -2.780   0.638  14.032  0.00  0.00    +0.079 C 
ENDBRANCH  18  24
ENDBRANCH  13  16
ENDBRANCH  11  12
ENDBRANCH   9  10
BRANCH   7  26
ATOM     26  C   UNL     1       8.152  -0.179  13.357  0.00  0.00    +0.048 C 
BRANCH  26  27
ATOM     27  C   UNL     1       7.576  -0.022  11.971  0.00  0.00    -0.028 A 
ATOM     28  C   UNL     1       7.414  -1.137  11.135  0.00  0.00    -0.055 A 
ATOM     29  C   UNL     1       6.988  -0.977   9.815  0.00  0.00    -0.043 A 
ATOM     30  C   UNL     1       6.708   0.296   9.327  0.00  0.00    +0.041 A 
ATOM     31  C   UNL     1       6.813   1.409  10.158  0.00  0.00    -0.043 A 
ATOM     32  C   UNL     1       7.245   1.250  11.478  0.00  0.00    -0.055 A 
ATOM     33 CL   UNL     1       6.250   0.498   7.680  0.00  0.00    -0.084 Cl
ENDBRANCH  26  27
ENDBRANCH   7  26
TORSDOF 7
ENDMDL
MODEL 3
REMARK VINA RESULT:    -8.143      4.435      8.910
REMARK INTER + INTRA:         -12.340
REMARK INTER:                 -11.495
REMARK INTRA:                  -0.845
REMARK UNBOUND:                -0.864
REMARK  Name = 23c.sdf
REMARK  9 active torsions:
REMARK  status: ('A' for Active; 'I' for Inactive)
REMARK    1  A    between atoms: N_7  and  C_12
REMARK    2  A    between atoms: C_9  and  C_10
REMARK    3  A    between atoms: N_11  and  N_19
REMARK    4  A    between atoms: C_12  and  C_13
REMARK    5  A    between atoms: C_20  and  C_22
REMARK    6  A    between atoms: C_24  and  O_30
REMARK    7  A    between atoms: C_25  and  O_29
REMARK    8  A    between atoms: O_29  and  C_32
REMARK    9  A    between atoms: O_30  and  C_31
REMARK                            x       y       z     vdW  Elec       q    Type
REMARK                         _______ _______ _______ _____ _____    ______ ____
ROOT
ATOM      1  C   UNL     1       7.597  -2.406  17.655  0.00  0.00    -0.061 A 
ATOM      2  C   UNL     1       8.773  -1.903  17.114  0.00  0.00    -0.060 A 
ATOM      3  C   UNL     1       8.760  -1.172  15.921  0.00  0.00    -0.038 A 
ATOM      4  C   UNL     1       7.525  -0.951  15.286  0.00  0.00    +0.050 A 
ATOM      5  C   UNL     1       6.323  -1.413  15.837  0.00  0.00    +0.009 A 
ATOM      6  C   UNL     1       6.369  -2.163  17.034  0.00  0.00    -0.052 A 
ATOM      7  N   UNL     1       7.207  -0.318  14.099  0.00  0.00    -0.342 N 
ATOM      8  C   UNL     1       5.844  -0.307  13.930  0.00  0.00    +0.015 A 
ATOM      9  C   UNL     1       5.258  -0.968  14.991  0.00  0.00    +0.020 A 
ENDROOT
BRANCH   9  10
ATOM     10  C   UNL     1       3.838  -1.165  15.190  0.00  0.00    +0.055 C 
ATOM     11  N   UNL     1       3.008  -0.859  14.247  0.00  0.00    -0.187 NA
BRANCH  11  12
ATOM     12  N   UNL     1       1.683  -1.072  14.523  0.00  0.00    -0.203 N 
ATOM     13  C   UNL     1       0.778  -1.194  13.477  0.00  0.00    +0.263 C 
ATOM     14  O   UNL     1       1.065  -1.148  12.283  0.00  0.00    -0.268 OA
ATOM     15  H   UNL     1       1.374  -1.136  15.456  0.00  0.00    +0.000 HD
BRANCH  13  16
ATOM     16  C   UNL     1      -0.637  -1.451  13.868  0.00  0.00    +0.042 A 
ATOM     17  C   UNL     1      -1.700  -1.281  12.971  0.00  0.00    -0.004 A 
ATOM     18  C   UNL     1      -3.018  -1.504  13.393  0.00  0.00    +0.162 A 
ATOM     19  C   UNL     1      -3.273  -1.921  14.717  0.00  0.00    +0.162 A 
ATOM     20  C   UNL     1      -2.202  -2.130  15.592  0.00  0.00    -0.016 A 
ATOM     21  C   UNL     1      -0.892  -1.894  15.169  0.00  0.00    -0.046 A 
BRANCH  19  22
ATOM     22  O   UNL     1      -4.593  -2.096  15.052  0.00  0.00    -0.491 OA
ATOM     23  C   UNL     1      -4.925  -3.201  15.881  0.00  0.00    +0.079 C 
ENDBRANCH  19  22
BRANCH  18  24
ATOM     24  O   UNL     1      -4.124  -1.336  12.595  0.00  0.00    -0.491 OA
ATOM     25  C   UNL     1      -4.462  -0.018  12.190  0.00  0.00    +0.079 C 
ENDBRANCH  18  24
ENDBRANCH  13  16
ENDBRANCH  11  12
ENDBRANCH   9  10
BRANCH   7  26
ATOM     26  C   UNL     1       8.154   0.182  13.103  0.00  0.00    +0.048 C 
BRANCH  26  27
ATOM     27  C   UNL     1       7.568   0.148  11.713  0.00  0.00    -0.028 A 
ATOM     28  C   UNL     1       7.512  -1.053  10.991  0.00  0.00    -0.055 A 
ATOM     29  C   UNL     1       7.075  -1.064   9.665  0.00  0.00    -0.043 A 
ATOM     30  C   UNL     1       6.679   0.124   9.056  0.00  0.00    +0.041 A 
ATOM     31  C   UNL     1       6.679   1.318   9.774  0.00  0.00    -0.043 A 
ATOM     32  C   UNL     1       7.121   1.329  11.100  0.00  0.00    -0.055 A 
ATOM     33 CL   UNL     1       6.207   0.120   7.402  0.00  0.00    -0.084 Cl
ENDBRANCH  26  27
ENDBRANCH   7  26
TORSDOF 7
ENDMDL
