MODEL 1
REMARK VINA RESULT:   -10.005      0.000      0.000
REMARK INTER + INTRA:         -14.073
REMARK INTER:                 -13.222
REMARK INTRA:                  -0.852
REMARK UNBOUND:                -0.852
REMARK  Name = 24c.sdf
REMARK  6 active torsions:
REMARK  status: ('A' for Active; 'I' for Inactive)
REMARK    1  A    between atoms: N_7  and  C_10
REMARK    2  A    between atoms: C_9  and  C_18
REMARK    3  A    between atoms: C_10  and  C_11
REMARK    4  A    between atoms: N_19  and  N_20
REMARK    5  A    between atoms: C_21  and  C_23
REMARK    6  A    between atoms: C_26  and  O_29
REMARK                            x       y       z     vdW  Elec       q    Type
REMARK                         _______ _______ _______ _____ _____    ______ ____
ROOT
ATOM      1  C   UNL     1       9.054  -1.035  16.096  0.00  0.00    -0.061 A 
ATOM      2  C   UNL     1       8.329  -1.996  16.791  0.00  0.00    -0.060 A 
ATOM      3  C   UNL     1       7.013  -2.301  16.431  0.00  0.00    -0.038 A 
ATOM      4  C   UNL     1       6.441  -1.617  15.345  0.00  0.00    +0.050 A 
ATOM      5  C   UNL     1       7.168  -0.680  14.601  0.00  0.00    +0.009 A 
ATOM      6  C   UNL     1       8.490  -0.380  14.998  0.00  0.00    -0.052 A 
ATOM      7  N   UNL     1       5.171  -1.667  14.795  0.00  0.00    -0.342 N 
ATOM      8  C   UNL     1       5.111  -0.855  13.692  0.00  0.00    +0.015 A 
ATOM      9  C   UNL     1       6.333  -0.230  13.530  0.00  0.00    +0.020 A 
ENDROOT
BRANCH   9  10
ATOM     10  C   UNL     1       6.685   0.697  12.472  0.00  0.00    +0.055 C 
ATOM     11  N   UNL     1       5.929   0.800  11.429  0.00  0.00    -0.187 NA
BRANCH  11  12
ATOM     12  N   UNL     1       6.342   1.694  10.480  0.00  0.00    -0.203 N 
ATOM     13  C   UNL     1       6.908   1.229   9.304  0.00  0.00    +0.263 C 
ATOM     14  O   UNL     1       7.075   0.049   9.012  0.00  0.00    -0.268 OA
ATOM     15  H   UNL     1       6.238   2.662  10.632  0.00  0.00    +0.000 HD
BRANCH  13  16
ATOM     16  C   UNL     1       7.304   2.279   8.317  0.00  0.00    +0.039 A 
ATOM     17  C   UNL     1       6.700   2.392   7.054  0.00  0.00    -0.046 A 
ATOM     18  C   UNL     1       7.120   3.386   6.162  0.00  0.00    -0.019 A 
ATOM     19  C   UNL     1       8.129   4.267   6.540  0.00  0.00    +0.117 A 
ATOM     20  C   UNL     1       8.713   4.185   7.797  0.00  0.00    -0.019 A 
ATOM     21  C   UNL     1       8.299   3.193   8.688  0.00  0.00    -0.046 A 
BRANCH  19  22
ATOM     22  O   UNL     1       8.575   5.242   5.698  0.00  0.00    -0.507 OA
ATOM     23  H   UNL     1       8.006   5.587   5.037  0.00  0.00    +0.000 HD
ENDBRANCH  19  22
ENDBRANCH  13  16
ENDBRANCH  11  12
ENDBRANCH   9  10
BRANCH   7  24
ATOM     24  C   UNL     1       4.018  -2.379  15.342  0.00  0.00    +0.048 C 
BRANCH  24  25
ATOM     25  C   UNL     1       2.820  -1.474  15.488  0.00  0.00    -0.028 A 
ATOM     26  C   UNL     1       2.764  -0.525  16.519  0.00  0.00    -0.055 A 
ATOM     27  C   UNL     1       1.612   0.240  16.718  0.00  0.00    -0.043 A 
ATOM     28  C   UNL     1       0.514   0.069  15.878  0.00  0.00    +0.041 A 
ATOM     29  C   UNL     1       0.572  -0.833  14.818  0.00  0.00    -0.043 A 
ATOM     30  C   UNL     1       1.722  -1.601  14.623  0.00  0.00    -0.055 A 
ATOM     31 CL   UNL     1      -0.928   0.962  16.166  0.00  0.00    -0.084 Cl
ENDBRANCH  24  25
ENDBRANCH   7  24
TORSDOF 6
ENDMDL
MODEL 2
REMARK VINA RESULT:    -9.658      1.747      2.414
REMARK INTER + INTRA:         -13.615
REMARK INTER:                 -13.316
REMARK INTRA:                  -0.299
REMARK UNBOUND:                -0.852
REMARK  Name = 24c.sdf
REMARK  6 active torsions:
REMARK  status: ('A' for Active; 'I' for Inactive)
REMARK    1  A    between atoms: N_7  and  C_10
REMARK    2  A    between atoms: C_9  and  C_18
REMARK    3  A    between atoms: C_10  and  C_11
REMARK    4  A    between atoms: N_19  and  N_20
REMARK    5  A    between atoms: C_21  and  C_23
REMARK    6  A    between atoms: C_26  and  O_29
REMARK                            x       y       z     vdW  Elec       q    Type
REMARK                         _______ _______ _______ _____ _____    ______ ____
ROOT
ATOM      1  C   UNL     1       7.622  -1.536  15.548  0.00  0.00    -0.061 A 
ATOM      2  C   UNL     1       6.722  -2.360  16.214  0.00  0.00    -0.060 A 
ATOM      3  C   UNL     1       5.351  -2.288  15.948  0.00  0.00    -0.038 A 
ATOM      4  C   UNL     1       4.903  -1.368  14.985  0.00  0.00    +0.050 A 
ATOM      5  C   UNL     1       5.796  -0.562  14.268  0.00  0.00    +0.009 A 
ATOM      6  C   UNL     1       7.173  -0.643  14.570  0.00  0.00    -0.052 A 
ATOM      7  N   UNL     1       3.630  -1.042  14.549  0.00  0.00    -0.342 N 
ATOM      8  C   UNL     1       3.708  -0.122  13.535  0.00  0.00    +0.015 A 
ATOM      9  C   UNL     1       5.037   0.196  13.323  0.00  0.00    +0.020 A 
ENDROOT
BRANCH   9  10
ATOM     10  C   UNL     1       5.544   1.120  12.327  0.00  0.00    +0.055 C 
ATOM     11  N   UNL     1       6.040   0.667  11.223  0.00  0.00    -0.187 NA
BRANCH  11  12
ATOM     12  N   UNL     1       6.500   1.609  10.345  0.00  0.00    -0.203 N 
ATOM     13  C   UNL     1       6.885   1.225   9.070  0.00  0.00    +0.263 C 
ATOM     14  O   UNL     1       6.845   0.081   8.629  0.00  0.00    -0.268 OA
ATOM     15  H   UNL     1       6.557   2.554  10.617  0.00  0.00    +0.000 HD
BRANCH  13  16
ATOM     16  C   UNL     1       7.349   2.327   8.175  0.00  0.00    +0.039 A 
ATOM     17  C   UNL     1       8.441   3.150   8.497  0.00  0.00    -0.046 A 
ATOM     18  C   UNL     1       8.826   4.178   7.627  0.00  0.00    -0.019 A 
ATOM     19  C   UNL     1       8.128   4.370   6.439  0.00  0.00    +0.117 A 
ATOM     20  C   UNL     1       7.066   3.544   6.095  0.00  0.00    -0.019 A 
ATOM     21  C   UNL     1       6.678   2.520   6.960  0.00  0.00    -0.046 A 
BRANCH  19  22
ATOM     22  O   UNL     1       8.462   5.366   5.570  0.00  0.00    -0.507 OA
ATOM     23  H   UNL     1       9.345   5.444   5.265  0.00  0.00    +0.000 HD
ENDBRANCH  19  22
ENDBRANCH  13  16
ENDBRANCH  11  12
ENDBRANCH   9  10
BRANCH   7  24
ATOM     24  C   UNL     1       2.372  -1.504  15.131  0.00  0.00    +0.048 C 
BRANCH  24  25
ATOM     25  C   UNL     1       1.350  -1.825  14.068  0.00  0.00    -0.028 A 
ATOM     26  C   UNL     1       0.764  -0.801  13.309  0.00  0.00    -0.055 A 
ATOM     27  C   UNL     1      -0.256  -1.086  12.400  0.00  0.00    -0.043 A 
ATOM     28  C   UNL     1      -0.688  -2.400  12.234  0.00  0.00    +0.041 A 
ATOM     29  C   UNL     1      -0.083  -3.436  12.942  0.00  0.00    -0.043 A 
ATOM     30  C   UNL     1       0.934  -3.149  13.855  0.00  0.00    -0.055 A 
ATOM     31 CL   UNL     1      -1.992  -2.741  11.165  0.00  0.00    -0.084 Cl
ENDBRANCH  24  25
ENDBRANCH   7  24
TORSDOF 6
ENDMDL
MODEL 3
REMARK VINA RESULT:    -9.197      3.677      9.091
REMARK INTER + INTRA:         -13.006
REMARK INTER:                 -12.135
REMARK INTRA:                  -0.870
REMARK UNBOUND:                -0.852
REMARK  Name = 24c.sdf
REMARK  6 active torsions:
REMARK  status: ('A' for Active; 'I' for Inactive)
REMARK    1  A    between atoms: N_7  and  C_10
REMARK    2  A    between atoms: C_9  and  C_18
REMARK    3  A    between atoms: C_10  and  C_11
REMARK    4  A    between atoms: N_19  and  N_20
REMARK    5  A    between atoms: C_21  and  C_23
REMARK    6  A    between atoms: C_26  and  O_29
REMARK                            x       y       z     vdW  Elec       q    Type
REMARK                         _______ _______ _______ _____ _____    ______ ____
ROOT
ATOM      1  C   UNL     1       8.887   4.731   7.342  0.00  0.00    -0.061 A 
ATOM      2  C   UNL     1       8.173   5.178   6.237  0.00  0.00    -0.060 A 
ATOM      3  C   UNL     1       6.986   4.549   5.847  0.00  0.00    -0.038 A 
ATOM      4  C   UNL     1       6.527   3.458   6.604  0.00  0.00    +0.050 A 
ATOM      5  C   UNL     1       7.205   3.020   7.748  0.00  0.00    +0.009 A 
ATOM      6  C   UNL     1       8.410   3.663   8.108  0.00  0.00    -0.052 A 
ATOM      7  N   UNL     1       5.435   2.622   6.441  0.00  0.00    -0.342 N 
ATOM      8  C   UNL     1       5.369   1.736   7.485  0.00  0.00    +0.015 A 
ATOM      9  C   UNL     1       6.445   1.955   8.325  0.00  0.00    +0.020 A 
ENDROOT
BRANCH   9  10
ATOM     10  C   UNL     1       6.730   1.237   9.552  0.00  0.00    +0.055 C 
ATOM     11  N   UNL     1       6.403   1.753  10.691  0.00  0.00    -0.187 NA
BRANCH  11  12
ATOM     12  N   UNL     1       6.715   1.008  11.794  0.00  0.00    -0.203 N 
ATOM     13  C   UNL     1       5.728   0.717  12.723  0.00  0.00    +0.263 C 
ATOM     14  O   UNL     1       4.555   1.066  12.648  0.00  0.00    -0.268 OA
ATOM     15  H   UNL     1       7.635   0.681  11.928  0.00  0.00    +0.000 HD
BRANCH  13  16
ATOM     16  C   UNL     1       6.158  -0.123  13.882  0.00  0.00    +0.039 A 
ATOM     17  C   UNL     1       5.265  -0.537  14.884  0.00  0.00    -0.046 A 
ATOM     18  C   UNL     1       5.724  -1.312  15.957  0.00  0.00    -0.019 A 
ATOM     19  C   UNL     1       7.065  -1.678  16.015  0.00  0.00    +0.117 A 
ATOM     20  C   UNL     1       7.952  -1.300  15.015  0.00  0.00    -0.019 A 
ATOM     21  C   UNL     1       7.498  -0.525  13.946  0.00  0.00    -0.046 A 
BRANCH  19  22
ATOM     22  O   UNL     1       7.556  -2.422  17.047  0.00  0.00    -0.507 OA
ATOM     23  H   UNL     1       7.140  -3.229  17.281  0.00  0.00    +0.000 HD
ENDBRANCH  19  22
ENDBRANCH  13  16
ENDBRANCH  11  12
ENDBRANCH   9  10
BRANCH   7  24
ATOM     24  C   UNL     1       4.534   2.591   5.290  0.00  0.00    +0.048 C 
BRANCH  24  25
ATOM     25  C   UNL     1       3.090   2.489   5.715  0.00  0.00    -0.028 A 
ATOM     26  C   UNL     1       2.358   1.315   5.482  0.00  0.00    -0.055 A 
ATOM     27  C   UNL     1       0.995   1.258   5.779  0.00  0.00    -0.043 A 
ATOM     28  C   UNL     1       0.358   2.370   6.324  0.00  0.00    +0.041 A 
ATOM     29  C   UNL     1       1.080   3.527   6.609  0.00  0.00    -0.043 A 
ATOM     30  C   UNL     1       2.442   3.585   6.307  0.00  0.00    -0.055 A 
ATOM     31 CL   UNL     1      -1.336   2.322   6.625  0.00  0.00    -0.084 Cl
ENDBRANCH  24  25
ENDBRANCH   7  24
TORSDOF 6
ENDMDL
