MODEL 1
REMARK VINA RESULT:   -10.274      0.000      0.000
REMARK INTER + INTRA:         -14.926
REMARK INTER:                 -13.878
REMARK INTRA:                  -1.048
REMARK UNBOUND:                -1.048
REMARK  Name = 26c.sdf
REMARK  7 active torsions:
REMARK  status: ('A' for Active; 'I' for Inactive)
REMARK    1  A    between atoms: N_7  and  C_10
REMARK    2  A    between atoms: C_9  and  C_18
REMARK    3  A    between atoms: C_10  and  C_11
REMARK    4  A    between atoms: N_19  and  N_20
REMARK    5  A    between atoms: C_21  and  C_23
REMARK    6  A    between atoms: C_26  and  O_29
REMARK    7  A    between atoms: C_28  and  O_30
REMARK                            x       y       z     vdW  Elec       q    Type
REMARK                         _______ _______ _______ _____ _____    ______ ____
ROOT
ATOM      1  C   UNL     1       8.957  -0.761  16.098  0.00  0.00    -0.061 A 
ATOM      2  C   UNL     1       8.319  -1.770  16.812  0.00  0.00    -0.060 A 
ATOM      3  C   UNL     1       7.025  -2.183  16.476  0.00  0.00    -0.038 A 
ATOM      4  C   UNL     1       6.379  -1.554  15.397  0.00  0.00    +0.050 A 
ATOM      5  C   UNL     1       7.026  -0.575  14.628  0.00  0.00    +0.009 A 
ATOM      6  C   UNL     1       8.328  -0.170  14.999  0.00  0.00    -0.052 A 
ATOM      7  N   UNL     1       5.103  -1.692  14.881  0.00  0.00    -0.342 N 
ATOM      8  C   UNL     1       4.969  -0.908  13.765  0.00  0.00    +0.015 A 
ATOM      9  C   UNL     1       6.141  -0.204  13.570  0.00  0.00    +0.020 A 
ENDROOT
BRANCH   9  10
ATOM     10  C   UNL     1       6.395   0.725  12.489  0.00  0.00    +0.055 C 
ATOM     11  N   UNL     1       5.684   0.647  11.409  0.00  0.00    -0.187 NA
BRANCH  11  12
ATOM     12  N   UNL     1       6.007   1.561  10.445  0.00  0.00    -0.203 N 
ATOM     13  C   UNL     1       6.697   1.185   9.304  0.00  0.00    +0.267 C 
ATOM     14  O   UNL     1       7.075   0.043   9.058  0.00  0.00    -0.268 OA
ATOM     15  H   UNL     1       5.744   2.502  10.563  0.00  0.00    +0.000 HD
BRANCH  13  16
ATOM     16  C   UNL     1       6.985   2.288   8.326  0.00  0.00    +0.080 A 
ATOM     17  C   UNL     1       8.327   2.676   8.161  0.00  0.00    -0.043 A 
ATOM     18  C   UNL     1       8.676   3.699   7.272  0.00  0.00    -0.019 A 
ATOM     19  C   UNL     1       7.680   4.336   6.543  0.00  0.00    +0.120 A 
ATOM     20  C   UNL     1       6.348   3.966   6.680  0.00  0.00    +0.022 A 
ATOM     21  C   UNL     1       5.999   2.945   7.571  0.00  0.00    +0.132 A 
BRANCH  19  22
ATOM     22  O   UNL     1       7.965   5.346   5.672  0.00  0.00    -0.507 OA
ATOM     23  H   UNL     1       7.274   5.871   5.321  0.00  0.00    +0.000 HD
ENDBRANCH  19  22
BRANCH  21  24
ATOM     24  O   UNL     1       4.676   2.606   7.690  0.00  0.00    -0.506 OA
ATOM     25  H   UNL     1       4.347   2.280   8.505  0.00  0.00    +0.000 HD
ENDBRANCH  21  24
ENDBRANCH  13  16
ENDBRANCH  11  12
ENDBRANCH   9  10
BRANCH   7  26
ATOM     26  C   UNL     1       3.990  -2.434  15.475  0.00  0.00    +0.048 C 
BRANCH  26  27
ATOM     27  C   UNL     1       2.737  -1.597  15.555  0.00  0.00    -0.028 A 
ATOM     28  C   UNL     1       1.693  -1.792  14.639  0.00  0.00    -0.055 A 
ATOM     29  C   UNL     1       0.601  -0.925  14.615  0.00  0.00    -0.043 A 
ATOM     30  C   UNL     1       0.534   0.130  15.522  0.00  0.00    +0.041 A 
ATOM     31  C   UNL     1       1.522   0.292  16.488  0.00  0.00    -0.043 A 
ATOM     32  C   UNL     1       2.621  -0.571  16.507  0.00  0.00    -0.055 A 
ATOM     33 CL   UNL     1      -0.762   1.258  15.422  0.00  0.00    -0.084 Cl
ENDBRANCH  26  27
ENDBRANCH   7  26
TORSDOF 7
ENDMDL
MODEL 2
REMARK VINA RESULT:   -10.084      1.572      2.062
REMARK INTER + INTRA:         -14.669
REMARK INTER:                 -13.805
REMARK INTRA:                  -0.864
REMARK UNBOUND:                -1.048
REMARK  Name = 26c.sdf
REMARK  7 active torsions:
REMARK  status: ('A' for Active; 'I' for Inactive)
REMARK    1  A    between atoms: N_7  and  C_10
REMARK    2  A    between atoms: C_9  and  C_18
REMARK    3  A    between atoms: C_10  and  C_11
REMARK    4  A    between atoms: N_19  and  N_20
REMARK    5  A    between atoms: C_21  and  C_23
REMARK    6  A    between atoms: C_26  and  O_29
REMARK    7  A    between atoms: C_28  and  O_30
REMARK                            x       y       z     vdW  Elec       q    Type
REMARK                         _______ _______ _______ _____ _____    ______ ____
ROOT
ATOM      1  C   UNL     1       7.523  -1.475  15.551  0.00  0.00    -0.061 A 
ATOM      2  C   UNL     1       6.717  -2.341  16.281  0.00  0.00    -0.060 A 
ATOM      3  C   UNL     1       5.331  -2.368  16.092  0.00  0.00    -0.038 A 
ATOM      4  C   UNL     1       4.766  -1.495  15.145  0.00  0.00    +0.050 A 
ATOM      5  C   UNL     1       5.567  -0.655  14.358  0.00  0.00    +0.009 A 
ATOM      6  C   UNL     1       6.963  -0.641  14.580  0.00  0.00    -0.052 A 
ATOM      7  N   UNL     1       3.452  -1.245  14.792  0.00  0.00    -0.342 N 
ATOM      8  C   UNL     1       3.416  -0.355  13.750  0.00  0.00    +0.015 A 
ATOM      9  C   UNL     1       4.706   0.031  13.447  0.00  0.00    +0.020 A 
ENDROOT
BRANCH   9  10
ATOM     10  C   UNL     1       5.083   0.955  12.398  0.00  0.00    +0.055 C 
ATOM     11  N   UNL     1       5.676   0.502  11.339  0.00  0.00    -0.187 NA
BRANCH  11  12
ATOM     12  N   UNL     1       5.999   1.454  10.413  0.00  0.00    -0.203 N 
ATOM     13  C   UNL     1       6.699   1.127   9.263  0.00  0.00    +0.267 C 
ATOM     14  O   UNL     1       7.085  -0.003   8.976  0.00  0.00    -0.268 OA
ATOM     15  H   UNL     1       5.729   2.388  10.565  0.00  0.00    +0.000 HD
BRANCH  13  16
ATOM     16  C   UNL     1       6.986   2.268   8.330  0.00  0.00    +0.080 A 
ATOM     17  C   UNL     1       8.328   2.655   8.170  0.00  0.00    -0.043 A 
ATOM     18  C   UNL     1       8.677   3.712   7.323  0.00  0.00    -0.019 A 
ATOM     19  C   UNL     1       7.679   4.384   6.629  0.00  0.00    +0.120 A 
ATOM     20  C   UNL     1       6.346   4.017   6.761  0.00  0.00    +0.022 A 
ATOM     21  C   UNL     1       5.998   2.961   7.610  0.00  0.00    +0.132 A 
BRANCH  19  22
ATOM     22  O   UNL     1       7.963   5.428   5.798  0.00  0.00    -0.507 OA
ATOM     23  H   UNL     1       7.475   6.225   5.863  0.00  0.00    +0.000 HD
ENDBRANCH  19  22
BRANCH  21  24
ATOM     24  O   UNL     1       4.674   2.625   7.725  0.00  0.00    -0.506 OA
ATOM     25  H   UNL     1       4.270   2.592   8.571  0.00  0.00    +0.000 HD
ENDBRANCH  21  24
ENDBRANCH  13  16
ENDBRANCH  11  12
ENDBRANCH   9  10
BRANCH   7  26
ATOM     26  C   UNL     1       2.251  -1.720  15.480  0.00  0.00    +0.048 C 
BRANCH  26  27
ATOM     27  C   UNL     1       1.126  -2.002  14.515  0.00  0.00    -0.028 A 
ATOM     28  C   UNL     1       1.045  -3.241  13.863  0.00  0.00    -0.055 A 
ATOM     29  C   UNL     1       0.097  -3.454  12.862  0.00  0.00    -0.043 A 
ATOM     30  C   UNL     1      -0.791  -2.437  12.522  0.00  0.00    +0.041 A 
ATOM     31  C   UNL     1      -0.776  -1.228  13.212  0.00  0.00    -0.043 A 
ATOM     32  C   UNL     1       0.179  -1.011  14.209  0.00  0.00    -0.055 A 
ATOM     33 CL   UNL     1      -1.890  -2.665  11.217  0.00  0.00    -0.084 Cl
ENDBRANCH  26  27
ENDBRANCH   7  26
TORSDOF 7
ENDMDL
MODEL 3
REMARK VINA RESULT:    -8.964      2.333      4.460
REMARK INTER + INTRA:         -13.156
REMARK INTER:                 -12.509
REMARK INTRA:                  -0.647
REMARK UNBOUND:                -1.048
REMARK  Name = 26c.sdf
REMARK  7 active torsions:
REMARK  status: ('A' for Active; 'I' for Inactive)
REMARK    1  A    between atoms: N_7  and  C_10
REMARK    2  A    between atoms: C_9  and  C_18
REMARK    3  A    between atoms: C_10  and  C_11
REMARK    4  A    between atoms: N_19  and  N_20
REMARK    5  A    between atoms: C_21  and  C_23
REMARK    6  A    between atoms: C_26  and  O_29
REMARK    7  A    between atoms: C_28  and  O_30
REMARK                            x       y       z     vdW  Elec       q    Type
REMARK                         _______ _______ _______ _____ _____    ______ ____
ROOT
ATOM      1  C   UNL     1       0.489   0.831  14.643  0.00  0.00    -0.061 A 
ATOM      2  C   UNL     1       0.541  -0.116  15.660  0.00  0.00    -0.060 A 
ATOM      3  C   UNL     1       1.661  -0.939  15.821  0.00  0.00    -0.038 A 
ATOM      4  C   UNL     1       2.737  -0.792  14.928  0.00  0.00    +0.050 A 
ATOM      5  C   UNL     1       2.728   0.196  13.932  0.00  0.00    +0.009 A 
ATOM      6  C   UNL     1       1.578   1.005  13.786  0.00  0.00    -0.052 A 
ATOM      7  N   UNL     1       3.923  -1.489  14.792  0.00  0.00    -0.342 N 
ATOM      8  C   UNL     1       4.689  -0.911  13.813  0.00  0.00    +0.015 A 
ATOM      9  C   UNL     1       3.988   0.141  13.260  0.00  0.00    +0.020 A 
ENDROOT
BRANCH   9  10
ATOM     10  C   UNL     1       4.465   1.007  12.202  0.00  0.00    +0.055 C 
ATOM     11  N   UNL     1       5.605   0.753  11.643  0.00  0.00    -0.187 NA
BRANCH  11  12
ATOM     12  N   UNL     1       5.970   1.632  10.663  0.00  0.00    -0.203 N 
ATOM     13  C   UNL     1       6.545   1.191   9.481  0.00  0.00    +0.267 C 
ATOM     14  O   UNL     1       6.776   0.016   9.211  0.00  0.00    -0.268 OA
ATOM     15  H   UNL     1       5.823   2.596  10.798  0.00  0.00    +0.000 HD
BRANCH  13  16
ATOM     16  C   UNL     1       6.895   2.263   8.489  0.00  0.00    +0.080 A 
ATOM     17  C   UNL     1       8.246   2.641   8.393  0.00  0.00    -0.043 A 
ATOM     18  C   UNL     1       8.653   3.635   7.496  0.00  0.00    -0.019 A 
ATOM     19  C   UNL     1       7.705   4.253   6.690  0.00  0.00    +0.120 A 
ATOM     20  C   UNL     1       6.365   3.892   6.759  0.00  0.00    +0.022 A 
ATOM     21  C   UNL     1       5.959   2.899   7.657  0.00  0.00    +0.132 A 
BRANCH  19  22
ATOM     22  O   UNL     1       8.046   5.234   5.807  0.00  0.00    -0.507 OA
ATOM     23  H   UNL     1       7.431   5.518   5.160  0.00  0.00    +0.000 HD
ENDBRANCH  19  22
BRANCH  21  24
ATOM     24  O   UNL     1       4.630   2.568   7.708  0.00  0.00    -0.506 OA
ATOM     25  H   UNL     1       4.058   2.816   7.008  0.00  0.00    +0.000 HD
ENDBRANCH  21  24
ENDBRANCH  13  16
ENDBRANCH  11  12
ENDBRANCH   9  10
BRANCH   7  26
ATOM     26  C   UNL     1       4.290  -2.738  15.461  0.00  0.00    +0.048 C 
BRANCH  26  27
ATOM     27  C   UNL     1       5.423  -2.539  16.438  0.00  0.00    -0.028 A 
ATOM     28  C   UNL     1       6.663  -2.056  15.997  0.00  0.00    -0.055 A 
ATOM     29  C   UNL     1       7.755  -2.012  16.864  0.00  0.00    -0.043 A 
ATOM     30  C   UNL     1       7.608  -2.430  18.185  0.00  0.00    +0.041 A 
ATOM     31  C   UNL     1       6.366  -2.840  18.660  0.00  0.00    -0.043 A 
ATOM     32  C   UNL     1       5.274  -2.892  17.789  0.00  0.00    -0.055 A 
ATOM     33 CL   UNL     1       8.980  -2.473  19.223  0.00  0.00    -0.084 Cl
ENDBRANCH  26  27
ENDBRANCH   7  26
TORSDOF 7
ENDMDL
