MODEL 1
REMARK VINA RESULT:    -8.315      0.000      0.000
REMARK INTER + INTRA:         -10.966
REMARK INTER:                 -10.259
REMARK INTRA:                  -0.707
REMARK UNBOUND:                -0.707
REMARK  Name = 2a.sdf
REMARK  4 active torsions:
REMARK  status: ('A' for Active; 'I' for Inactive)
REMARK    1  A    between atoms: N_7  and  C_12
REMARK    2  A    between atoms: C_9  and  C_10
REMARK    3  A    between atoms: C_11  and  C_20
REMARK    4  A    between atoms: C_12  and  C_13
REMARK                            x       y       z     vdW  Elec       q    Type
REMARK                         _______ _______ _______ _____ _____    ______ ____
ROOT
ATOM      1  C   UNL     1       9.235  -1.388  16.077  0.00  0.00    -0.061 A 
ATOM      2  C   UNL     1       8.333  -1.544  17.115  0.00  0.00    -0.060 A 
ATOM      3  C   UNL     1       6.958  -1.359  16.909  0.00  0.00    -0.038 A 
ATOM      4  C   UNL     1       6.499  -0.915  15.653  0.00  0.00    +0.050 A 
ATOM      5  C   UNL     1       7.397  -0.809  14.577  0.00  0.00    +0.007 A 
ATOM      6  C   UNL     1       8.774  -1.065  14.800  0.00  0.00    -0.052 A 
ATOM      7  N   UNL     1       5.250  -0.523  15.187  0.00  0.00    -0.342 N 
ATOM      8  C   UNL     1       5.335  -0.278  13.827  0.00  0.00    +0.013 A 
ATOM      9  C   UNL     1       6.634  -0.470  13.419  0.00  0.00    +0.000 A 
ENDROOT
BRANCH   9  10
ATOM     10  C   UNL     1       7.146  -0.364  12.083  0.00  0.00    -0.046 C 
ATOM     11  C   UNL     1       6.678  -1.006  11.003  0.00  0.00    +0.023 C 
BRANCH  11  12
ATOM     12  C   UNL     1       7.178  -0.921   9.613  0.00  0.00    +0.330 C 
ATOM     13  O   UNL     1       7.783  -2.025   9.130  0.00  0.00    -0.478 OA
ATOM     14  O   UNL     1       7.012   0.076   8.948  0.00  0.00    -0.246 OA
ENDBRANCH  11  12
ENDBRANCH   9  10
BRANCH   7  15
ATOM     15  C   UNL     1       4.023  -0.220  15.950  0.00  0.00    +0.048 C 
BRANCH  15  16
ATOM     16  C   UNL     1       2.795  -0.948  15.455  0.00  0.00    -0.028 A 
ATOM     17  C   UNL     1       2.756  -2.350  15.453  0.00  0.00    -0.056 A 
ATOM     18  C   UNL     1       1.766  -3.031  14.738  0.00  0.00    -0.047 A 
ATOM     19  C   UNL     1       0.773  -2.309  14.080  0.00  0.00    +0.018 A 
ATOM     20  C   UNL     1       0.711  -0.922  14.197  0.00  0.00    -0.047 A 
ATOM     21  C   UNL     1       1.720  -0.241  14.886  0.00  0.00    -0.056 A 
ATOM     22 BR   UNL     1      -0.429  -3.202  12.926  0.00  0.00    -0.050 Br
ENDBRANCH  15  16
ENDBRANCH   7  15
TORSDOF 4
ENDMDL
MODEL 2
REMARK VINA RESULT:    -7.966      4.613      6.611
REMARK INTER + INTRA:         -10.535
REMARK INTER:                 -10.408
REMARK INTRA:                  -0.128
REMARK UNBOUND:                -0.707
REMARK  Name = 2a.sdf
REMARK  4 active torsions:
REMARK  status: ('A' for Active; 'I' for Inactive)
REMARK    1  A    between atoms: N_7  and  C_12
REMARK    2  A    between atoms: C_9  and  C_10
REMARK    3  A    between atoms: C_11  and  C_20
REMARK    4  A    between atoms: C_12  and  C_13
REMARK                            x       y       z     vdW  Elec       q    Type
REMARK                         _______ _______ _______ _____ _____    ______ ____
ROOT
ATOM      1  C   UNL     1       9.699  -0.800  15.238  0.00  0.00    -0.061 A 
ATOM      2  C   UNL     1       9.482  -0.170  14.024  0.00  0.00    -0.060 A 
ATOM      3  C   UNL     1       8.185  -0.016  13.515  0.00  0.00    -0.038 A 
ATOM      4  C   UNL     1       7.097  -0.594  14.200  0.00  0.00    +0.050 A 
ATOM      5  C   UNL     1       7.298  -1.184  15.460  0.00  0.00    +0.007 A 
ATOM      6  C   UNL     1       8.615  -1.269  15.980  0.00  0.00    -0.052 A 
ATOM      7  N   UNL     1       5.749  -0.727  13.894  0.00  0.00    -0.342 N 
ATOM      8  C   UNL     1       5.096  -1.291  14.977  0.00  0.00    +0.013 A 
ATOM      9  C   UNL     1       6.015  -1.559  15.963  0.00  0.00    +0.000 A 
ENDROOT
BRANCH   9  10
ATOM     10  C   UNL     1       5.755  -2.104  17.264  0.00  0.00    -0.046 C 
ATOM     11  C   UNL     1       4.910  -1.603  18.176  0.00  0.00    +0.023 C 
BRANCH  11  12
ATOM     12  C   UNL     1       4.615  -2.137  19.525  0.00  0.00    +0.330 C 
ATOM     13  O   UNL     1       4.102  -1.260  20.412  0.00  0.00    -0.478 OA
ATOM     14  O   UNL     1       4.792  -3.304  19.789  0.00  0.00    -0.246 OA
ENDBRANCH  11  12
ENDBRANCH   9  10
BRANCH   7  15
ATOM     15  C   UNL     1       5.058  -0.502  12.608  0.00  0.00    +0.048 C 
BRANCH  15  16
ATOM     16  C   UNL     1       5.989  -0.252  11.444  0.00  0.00    -0.028 A 
ATOM     17  C   UNL     1       6.194   1.052  10.969  0.00  0.00    -0.056 A 
ATOM     18  C   UNL     1       6.807   1.267   9.731  0.00  0.00    -0.047 A 
ATOM     19  C   UNL     1       7.279   0.180   8.999  0.00  0.00    +0.018 A 
ATOM     20  C   UNL     1       7.218  -1.108   9.526  0.00  0.00    -0.047 A 
ATOM     21  C   UNL     1       6.576  -1.325  10.749  0.00  0.00    -0.056 A 
ATOM     22 BR   UNL     1       7.898   0.437   7.231  0.00  0.00    -0.050 Br
ENDBRANCH  15  16
ENDBRANCH   7  15
TORSDOF 4
ENDMDL
MODEL 3
REMARK VINA RESULT:    -7.805      3.149      4.710
REMARK INTER + INTRA:         -10.337
REMARK INTER:                  -9.553
REMARK INTRA:                  -0.784
REMARK UNBOUND:                -0.707
REMARK  Name = 2a.sdf
REMARK  4 active torsions:
REMARK  status: ('A' for Active; 'I' for Inactive)
REMARK    1  A    between atoms: N_7  and  C_12
REMARK    2  A    between atoms: C_9  and  C_10
REMARK    3  A    between atoms: C_11  and  C_20
REMARK    4  A    between atoms: C_12  and  C_13
REMARK                            x       y       z     vdW  Elec       q    Type
REMARK                         _______ _______ _______ _____ _____    ______ ____
ROOT
ATOM      1  C   UNL     1       7.407  -0.004  12.418  0.00  0.00    -0.061 A 
ATOM      2  C   UNL     1       6.360   0.814  12.024  0.00  0.00    -0.060 A 
ATOM      3  C   UNL     1       5.203   0.931  12.807  0.00  0.00    -0.038 A 
ATOM      4  C   UNL     1       5.063   0.133  13.961  0.00  0.00    +0.050 A 
ATOM      5  C   UNL     1       6.140  -0.656  14.401  0.00  0.00    +0.007 A 
ATOM      6  C   UNL     1       7.323  -0.706  13.621  0.00  0.00    -0.052 A 
ATOM      7  N   UNL     1       4.013  -0.073  14.846  0.00  0.00    -0.342 N 
ATOM      8  C   UNL     1       4.448  -0.888  15.877  0.00  0.00    +0.013 A 
ATOM      9  C   UNL     1       5.757  -1.241  15.646  0.00  0.00    +0.000 A 
ENDROOT
BRANCH   9  10
ATOM     10  C   UNL     1       6.600  -2.038  16.489  0.00  0.00    -0.046 C 
ATOM     11  C   UNL     1       7.644  -1.599  17.205  0.00  0.00    +0.023 C 
BRANCH  11  12
ATOM     12  C   UNL     1       8.534  -2.389  18.085  0.00  0.00    +0.330 C 
ATOM     13  O   UNL     1       8.014  -2.770  19.270  0.00  0.00    -0.478 OA
ATOM     14  O   UNL     1       9.648  -2.701  17.731  0.00  0.00    -0.246 OA
ENDBRANCH  11  12
ENDBRANCH   9  10
BRANCH   7  15
ATOM     15  C   UNL     1       2.594   0.315  14.717  0.00  0.00    +0.048 C 
BRANCH  15  16
ATOM     16  C   UNL     1       1.787  -0.591  13.816  0.00  0.00    -0.028 A 
ATOM     17  C   UNL     1       1.765  -0.374  12.430  0.00  0.00    -0.056 A 
ATOM     18  C   UNL     1       0.808  -1.006  11.630  0.00  0.00    -0.047 A 
ATOM     19  C   UNL     1      -0.083  -1.909  12.205  0.00  0.00    +0.018 A 
ATOM     20  C   UNL     1       0.024  -2.248  13.552  0.00  0.00    -0.047 A 
ATOM     21  C   UNL     1       0.960  -1.592  14.357  0.00  0.00    -0.056 A 
ATOM     22 BR   UNL     1      -1.520  -2.590  11.182  0.00  0.00    -0.050 Br
ENDBRANCH  15  16
ENDBRANCH   7  15
TORSDOF 4
ENDMDL
