MODEL 1
REMARK VINA RESULT:    -8.211      0.000      0.000
REMARK INTER + INTRA:         -11.562
REMARK INTER:                 -10.851
REMARK INTRA:                  -0.711
REMARK UNBOUND:                -0.711
REMARK  Name = 3a.sdf
REMARK  6 active torsions:
REMARK  status: ('A' for Active; 'I' for Inactive)
REMARK    1  A    between atoms: N_7  and  C_12
REMARK    2  A    between atoms: C_9  and  C_10
REMARK    3  A    between atoms: C_10  and  CA_11
REMARK    4  A    between atoms: CA_11  and  C_20
REMARK    5  A    between atoms: CA_11  and  N_23
REMARK    6  A    between atoms: C_12  and  C_13
REMARK                            x       y       z     vdW  Elec       q    Type
REMARK                         _______ _______ _______ _____ _____    ______ ____
ROOT
ATOM      1  C   UNL     1       7.752   5.352   7.098  0.00  0.00    -0.061 A 
ATOM      2  C   UNL     1       8.786   4.456   7.343  0.00  0.00    -0.060 A 
ATOM      3  C   UNL     1       8.539   3.083   7.440  0.00  0.00    -0.038 A 
ATOM      4  C   UNL     1       7.222   2.626   7.264  0.00  0.00    +0.050 A 
ATOM      5  C   UNL     1       6.172   3.507   6.980  0.00  0.00    +0.003 A 
ATOM      6  C   UNL     1       6.445   4.890   6.914  0.00  0.00    -0.052 A 
ATOM      7  N   UNL     1       6.667   1.366   7.355  0.00  0.00    -0.342 N 
ATOM      8  C   UNL     1       5.351   1.407   6.965  0.00  0.00    +0.009 A 
ATOM      9  C   UNL     1       4.977   2.729   6.830  0.00  0.00    -0.020 A 
ENDROOT
BRANCH   9  10
ATOM     10  C   UNL     1       3.599   3.264   6.582  0.00  0.00    -0.000 C 
BRANCH  10  11
ATOM     11  CA  UNL     1       2.740   2.464   5.584  0.00  0.00    +0.107 C 
BRANCH  11  12
ATOM     12  N   UNL     1       2.490   3.300   4.379  0.00  0.00    -0.318 N 
ATOM     13  H1  UNL     1       1.755   3.977   4.581  0.00  0.00    +0.000 HD
ATOM     14  H2  UNL     1       2.198   2.702   3.606  0.00  0.00    +0.000 HD
ATOM     15  H3  UNL     1       3.346   3.793   4.123  0.00  0.00    +0.000 HD
ENDBRANCH  11  12
BRANCH  11  16
ATOM     16  C   UNL     1       1.417   1.963   6.216  0.00  0.00    +0.322 C 
ATOM     17  O   UNL     1       1.070   2.630   7.344  0.00  0.00    -0.480 OA
ATOM     18  OXT UNL     1       0.697   1.086   5.756  0.00  0.00    -0.249 OA
ENDBRANCH  11  16
ENDBRANCH  10  11
ENDBRANCH   9  10
BRANCH   7  19
ATOM     19  C   UNL     1       7.292   0.179   7.935  0.00  0.00    +0.048 C 
BRANCH  19  20
ATOM     20  C   UNL     1       7.017   0.072   9.413  0.00  0.00    -0.028 A 
ATOM     21  C   UNL     1       7.016  -1.181  10.043  0.00  0.00    -0.056 A 
ATOM     22  C   UNL     1       6.637  -1.303  11.379  0.00  0.00    -0.047 A 
ATOM     23  C   UNL     1       6.276  -0.168  12.100  0.00  0.00    +0.018 A 
ATOM     24  C   UNL     1       6.331   1.092  11.509  0.00  0.00    -0.047 A 
ATOM     25  C   UNL     1       6.703   1.213  10.168  0.00  0.00    -0.056 A 
ATOM     26 BR   UNL     1       5.673  -0.345  13.881  0.00  0.00    -0.050 Br
ENDBRANCH  19  20
ENDBRANCH   7  19
TORSDOF 6
ENDMDL
MODEL 2
REMARK VINA RESULT:    -8.049      5.139      8.562
REMARK INTER + INTRA:         -11.349
REMARK INTER:                 -10.551
REMARK INTRA:                  -0.798
REMARK UNBOUND:                -0.711
REMARK  Name = 3a.sdf
REMARK  6 active torsions:
REMARK  status: ('A' for Active; 'I' for Inactive)
REMARK    1  A    between atoms: N_7  and  C_12
REMARK    2  A    between atoms: C_9  and  C_10
REMARK    3  A    between atoms: C_10  and  CA_11
REMARK    4  A    between atoms: CA_11  and  C_20
REMARK    5  A    between atoms: CA_11  and  N_23
REMARK    6  A    between atoms: C_12  and  C_13
REMARK                            x       y       z     vdW  Elec       q    Type
REMARK                         _______ _______ _______ _____ _____    ______ ____
ROOT
ATOM      1  C   UNL     1       9.124  -1.869  16.846  0.00  0.00    -0.061 A 
ATOM      2  C   UNL     1       8.102  -2.061  17.768  0.00  0.00    -0.060 A 
ATOM      3  C   UNL     1       6.773  -1.776  17.437  0.00  0.00    -0.038 A 
ATOM      4  C   UNL     1       6.492  -1.308  16.143  0.00  0.00    +0.050 A 
ATOM      5  C   UNL     1       7.501  -1.142  15.187  0.00  0.00    +0.003 A 
ATOM      6  C   UNL     1       8.836  -1.413  15.556  0.00  0.00    -0.052 A 
ATOM      7  N   UNL     1       5.315  -0.896  15.551  0.00  0.00    -0.342 N 
ATOM      8  C   UNL     1       5.527  -0.650  14.216  0.00  0.00    +0.009 A 
ATOM      9  C   UNL     1       6.885  -0.686  13.976  0.00  0.00    -0.020 A 
ENDROOT
BRANCH   9  10
ATOM     10  C   UNL     1       7.595  -0.317  12.708  0.00  0.00    -0.000 C 
BRANCH  10  11
ATOM     11  CA  UNL     1       6.711  -0.220  11.450  0.00  0.00    +0.107 C 
BRANCH  11  12
ATOM     12  N   UNL     1       7.085  -1.309  10.507  0.00  0.00    -0.318 N 
ATOM     13  H1  UNL     1       8.098  -1.327  10.393  0.00  0.00    +0.000 HD
ATOM     14  H2  UNL     1       6.643  -1.143   9.604  0.00  0.00    +0.000 HD
ATOM     15  H3  UNL     1       6.769  -2.205  10.881  0.00  0.00    +0.000 HD
ENDBRANCH  11  12
BRANCH  11  16
ATOM     16  C   UNL     1       6.797   1.172  10.776  0.00  0.00    +0.322 C 
ATOM     17  O   UNL     1       7.613   2.038  11.426  0.00  0.00    -0.480 OA
ATOM     18  OXT UNL     1       6.239   1.494   9.734  0.00  0.00    -0.249 OA
ENDBRANCH  11  16
ENDBRANCH  10  11
ENDBRANCH   9  10
BRANCH   7  19
ATOM     19  C   UNL     1       4.060  -0.586  16.231  0.00  0.00    +0.048 C 
BRANCH  19  20
ATOM     20  C   UNL     1       2.876  -1.181  15.513  0.00  0.00    -0.028 A 
ATOM     21  C   UNL     1       2.728  -2.573  15.427  0.00  0.00    -0.056 A 
ATOM     22  C   UNL     1       1.709  -3.131  14.656  0.00  0.00    -0.047 A 
ATOM     23  C   UNL     1       0.819  -2.299  13.982  0.00  0.00    +0.018 A 
ATOM     24  C   UNL     1       0.912  -0.915  14.107  0.00  0.00    -0.047 A 
ATOM     25  C   UNL     1       1.938  -0.356  14.872  0.00  0.00    -0.056 A 
ATOM     26 BR   UNL     1      -0.503  -3.055  12.865  0.00  0.00    -0.050 Br
ENDBRANCH  19  20
ENDBRANCH   7  19
TORSDOF 6
ENDMDL
MODEL 3
REMARK VINA RESULT:    -7.718      4.633      7.913
REMARK INTER + INTRA:         -10.911
REMARK INTER:                 -10.326
REMARK INTRA:                  -0.584
REMARK UNBOUND:                -0.711
REMARK  Name = 3a.sdf
REMARK  6 active torsions:
REMARK  status: ('A' for Active; 'I' for Inactive)
REMARK    1  A    between atoms: N_7  and  C_12
REMARK    2  A    between atoms: C_9  and  C_10
REMARK    3  A    between atoms: C_10  and  CA_11
REMARK    4  A    between atoms: CA_11  and  C_20
REMARK    5  A    between atoms: CA_11  and  N_23
REMARK    6  A    between atoms: C_12  and  C_13
REMARK                            x       y       z     vdW  Elec       q    Type
REMARK                         _______ _______ _______ _____ _____    ______ ____
ROOT
ATOM      1  C   UNL     1       4.833  -3.082  17.555  0.00  0.00    -0.061 A 
ATOM      2  C   UNL     1       6.180  -2.744  17.489  0.00  0.00    -0.060 A 
ATOM      3  C   UNL     1       6.671  -1.951  16.447  0.00  0.00    -0.038 A 
ATOM      4  C   UNL     1       5.767  -1.485  15.479  0.00  0.00    +0.050 A 
ATOM      5  C   UNL     1       4.400  -1.782  15.547  0.00  0.00    +0.003 A 
ATOM      6  C   UNL     1       3.937  -2.606  16.594  0.00  0.00    -0.052 A 
ATOM      7  N   UNL     1       5.954  -0.747  14.327  0.00  0.00    -0.342 N 
ATOM      8  C   UNL     1       4.737  -0.427  13.777  0.00  0.00    +0.009 A 
ATOM      9  C   UNL     1       3.757  -1.138  14.439  0.00  0.00    -0.020 A 
ENDROOT
BRANCH   9  10
ATOM     10  C   UNL     1       2.305  -1.235  14.082  0.00  0.00    -0.000 C 
BRANCH  10  11
ATOM     11  CA  UNL     1       1.822  -0.280  12.974  0.00  0.00    +0.107 C 
BRANCH  11  12
ATOM     12  N   UNL     1       1.309   0.969  13.600  0.00  0.00    -0.318 N 
ATOM     13  H1  UNL     1       1.825   1.155  14.460  0.00  0.00    +0.000 HD
ATOM     14  H2  UNL     1       0.318   0.859  13.814  0.00  0.00    +0.000 HD
ATOM     15  H3  UNL     1       1.433   1.749  12.954  0.00  0.00    +0.000 HD
ENDBRANCH  11  12
BRANCH  11  16
ATOM     16  C   UNL     1       0.762  -0.934  12.053  0.00  0.00    +0.322 C 
ATOM     17  O   UNL     1       0.108  -1.970  12.632  0.00  0.00    -0.480 OA
ATOM     18  OXT UNL     1       0.476  -0.561  10.922  0.00  0.00    -0.249 OA
ENDBRANCH  11  16
ENDBRANCH  10  11
ENDBRANCH   9  10
BRANCH   7  19
ATOM     19  C   UNL     1       7.227  -0.474  13.665  0.00  0.00    +0.048 C 
BRANCH  19  20
ATOM     20  C   UNL     1       7.041  -0.186  12.197  0.00  0.00    -0.028 A 
ATOM     21  C   UNL     1       6.992  -1.237  11.271  0.00  0.00    -0.056 A 
ATOM     22  C   UNL     1       6.950  -0.976   9.902  0.00  0.00    -0.047 A 
ATOM     23  C   UNL     1       6.937   0.342   9.452  0.00  0.00    +0.018 A 
ATOM     24  C   UNL     1       6.922   1.399  10.359  0.00  0.00    -0.047 A 
ATOM     25  C   UNL     1       6.972   1.136  11.730  0.00  0.00    -0.056 A 
ATOM     26 BR   UNL     1       6.975   0.697   7.597  0.00  0.00    -0.050 Br
ENDBRANCH  19  20
ENDBRANCH   7  19
TORSDOF 6
ENDMDL
