MODEL 1
REMARK VINA RESULT:    -5.914      0.000      0.000
REMARK INTER + INTRA:          -6.461
REMARK INTER:                  -6.433
REMARK INTRA:                  -0.029
REMARK UNBOUND:                -0.029
REMARK  Name = 4.sdf
REMARK  2 active torsions:
REMARK  status: ('A' for Active; 'I' for Inactive)
REMARK    1  A    between atoms: C_9  and  C_10
REMARK    2  A    between atoms: C_10  and  O_11
REMARK                            x       y       z     vdW  Elec       q    Type
REMARK                         _______ _______ _______ _____ _____    ______ ____
ROOT
ATOM      1  C   UNL     1      -1.457   1.577   4.587  0.00  0.00    -0.061 A 
ATOM      2  C   UNL     1      -0.527   0.810   5.285  0.00  0.00    -0.060 A 
ATOM      3  C   UNL     1      -0.154   1.147   6.588  0.00  0.00    -0.038 A 
ATOM      4  C   UNL     1      -0.742   2.280   7.164  0.00  0.00    +0.047 A 
ATOM      5  C   UNL     1      -1.669   3.078   6.488  0.00  0.00    +0.005 A 
ATOM      6  C   UNL     1      -2.035   2.709   5.176  0.00  0.00    -0.052 A 
ATOM      7  N   UNL     1      -0.560   2.832   8.409  0.00  0.00    -0.360 N 
ATOM      8  C   UNL     1      -1.325   3.957   8.540  0.00  0.00    +0.008 A 
ATOM      9  C   UNL     1      -2.028   4.155   7.366  0.00  0.00    +0.003 A 
ATOM     10  H   UNL     1       0.035   2.470   9.104  0.00  0.00    +0.000 HD
ENDROOT
BRANCH   9  11
ATOM     11  C   UNL     1      -2.950   5.292   7.081  0.00  0.00    +0.071 C 
BRANCH  11  12
ATOM     12  O   UNL     1      -4.147   5.210   7.847  0.00  0.00    -0.390 OA
ATOM     13  H   UNL     1      -4.192   4.347   8.287  0.00  0.00    +0.000 HD
ENDBRANCH  11  12
ENDBRANCH   9  11
TORSDOF 2
ENDMDL
MODEL 2
REMARK VINA RESULT:    -5.583      9.505     10.188
REMARK INTER + INTRA:          -6.102
REMARK INTER:                  -6.057
REMARK INTRA:                  -0.044
REMARK UNBOUND:                -0.029
REMARK  Name = 4.sdf
REMARK  2 active torsions:
REMARK  status: ('A' for Active; 'I' for Inactive)
REMARK    1  A    between atoms: C_9  and  C_10
REMARK    2  A    between atoms: C_10  and  O_11
REMARK                            x       y       z     vdW  Elec       q    Type
REMARK                         _______ _______ _______ _____ _____    ______ ____
ROOT
ATOM      1  C   UNL     1       7.801  -1.640   8.853  0.00  0.00    -0.061 A 
ATOM      2  C   UNL     1       7.597  -0.539   8.026  0.00  0.00    -0.060 A 
ATOM      3  C   UNL     1       7.014   0.631   8.520  0.00  0.00    -0.038 A 
ATOM      4  C   UNL     1       6.640   0.654   9.869  0.00  0.00    +0.047 A 
ATOM      5  C   UNL     1       6.819  -0.437  10.724  0.00  0.00    +0.005 A 
ATOM      6  C   UNL     1       7.419  -1.602  10.201  0.00  0.00    -0.052 A 
ATOM      7  N   UNL     1       6.054   1.657  10.604  0.00  0.00    -0.360 N 
ATOM      8  C   UNL     1       5.843   1.235  11.887  0.00  0.00    +0.008 A 
ATOM      9  C   UNL     1       6.296  -0.065  12.008  0.00  0.00    +0.003 A 
ATOM     10  H   UNL     1       5.821   2.548  10.257  0.00  0.00    +0.000 HD
ENDROOT
BRANCH   9  11
ATOM     11  C   UNL     1       6.217  -0.907  13.235  0.00  0.00    +0.071 C 
BRANCH  11  12
ATOM     12  O   UNL     1       7.404  -0.819  14.018  0.00  0.00    -0.390 OA
ATOM     13  H   UNL     1       8.124  -0.464  13.474  0.00  0.00    +0.000 HD
ENDBRANCH  11  12
ENDBRANCH   9  11
TORSDOF 2
ENDMDL
MODEL 3
REMARK VINA RESULT:    -5.572     11.025     12.266
REMARK INTER + INTRA:          -6.089
REMARK INTER:                  -6.063
REMARK INTRA:                  -0.026
REMARK UNBOUND:                -0.029
REMARK  Name = 4.sdf
REMARK  2 active torsions:
REMARK  status: ('A' for Active; 'I' for Inactive)
REMARK    1  A    between atoms: C_9  and  C_10
REMARK    2  A    between atoms: C_10  and  O_11
REMARK                            x       y       z     vdW  Elec       q    Type
REMARK                         _______ _______ _______ _____ _____    ______ ____
ROOT
ATOM      1  C   UNL     1       9.186  -0.957  15.654  0.00  0.00    -0.061 A 
ATOM      2  C   UNL     1       8.305  -1.647  16.481  0.00  0.00    -0.060 A 
ATOM      3  C   UNL     1       6.955  -1.777  16.142  0.00  0.00    -0.038 A 
ATOM      4  C   UNL     1       6.522  -1.186  14.949  0.00  0.00    +0.047 A 
ATOM      5  C   UNL     1       7.377  -0.476  14.101  0.00  0.00    +0.005 A 
ATOM      6  C   UNL     1       8.737  -0.370  14.463  0.00  0.00    -0.052 A 
ATOM      7  N   UNL     1       5.271  -1.158  14.382  0.00  0.00    -0.360 N 
ATOM      8  C   UNL     1       5.299  -0.444  13.217  0.00  0.00    +0.008 A 
ATOM      9  C   UNL     1       6.588   0.006  13.004  0.00  0.00    +0.003 A 
ATOM     10  H   UNL     1       4.471  -1.588  14.761  0.00  0.00    +0.000 HD
ENDROOT
BRANCH   9  11
ATOM     11  C   UNL     1       7.039   0.855  11.864  0.00  0.00    +0.071 C 
BRANCH  11  12
ATOM     12  O   UNL     1       5.956   1.562  11.267  0.00  0.00    -0.390 OA
ATOM     13  H   UNL     1       5.776   2.367  11.776  0.00  0.00    +0.000 HD
ENDBRANCH  11  12
ENDBRANCH   9  11
TORSDOF 2
ENDMDL
