MODEL 1
REMARK VINA RESULT:    -7.472      0.000      0.000
REMARK INTER + INTRA:          -9.299
REMARK INTER:                  -9.001
REMARK INTRA:                  -0.298
REMARK UNBOUND:                -0.298
REMARK  Name = 4b.sdf
REMARK  4 active torsions:
REMARK  status: ('A' for Active; 'I' for Inactive)
REMARK    1  A    between atoms: N_7  and  C_11
REMARK    2  A    between atoms: C_9  and  C_10
REMARK    3  A    between atoms: C_10  and  O_18
REMARK    4  A    between atoms: C_11  and  C_12
REMARK                            x       y       z     vdW  Elec       q    Type
REMARK                         _______ _______ _______ _____ _____    ______ ____
ROOT
ATOM      1  C   UNL     1       4.936  -2.241  16.349  0.00  0.00    -0.061 A 
ATOM      2  C   UNL     1       4.066  -1.945  15.304  0.00  0.00    -0.060 A 
ATOM      3  C   UNL     1       4.517  -1.309  14.141  0.00  0.00    -0.038 A 
ATOM      4  C   UNL     1       5.874  -0.947  14.057  0.00  0.00    +0.050 A 
ATOM      5  C   UNL     1       6.774  -1.302  15.069  0.00  0.00    +0.005 A 
ATOM      6  C   UNL     1       6.292  -1.944  16.232  0.00  0.00    -0.052 A 
ATOM      7  N   UNL     1       6.597  -0.232  13.115  0.00  0.00    -0.342 N 
ATOM      8  C   UNL     1       7.925  -0.225  13.471  0.00  0.00    +0.011 A 
ATOM      9  C   UNL     1       8.082  -0.895  14.659  0.00  0.00    +0.003 A 
ENDROOT
BRANCH   9  10
ATOM     10  C   UNL     1       9.346  -1.118  15.417  0.00  0.00    +0.071 C 
BRANCH  10  11
ATOM     11  O   UNL     1       9.339  -0.451  16.675  0.00  0.00    -0.390 OA
ATOM     12  H   UNL     1       8.511  -0.647  17.140  0.00  0.00    +0.000 HD
ENDBRANCH  10  11
ENDBRANCH   9  10
BRANCH   7  13
ATOM     13  C   UNL     1       6.065   0.556  11.998  0.00  0.00    +0.048 C 
BRANCH  13  14
ATOM     14  C   UNL     1       6.659   0.142  10.675  0.00  0.00    -0.025 A 
ATOM     15  C   UNL     1       6.767   1.061   9.628  0.00  0.00    -0.039 A 
ATOM     16  C   UNL     1       7.197   0.615   8.388  0.00  0.00    +0.028 A 
ATOM     17  N   UNL     1       7.565  -0.658   8.134  0.00  0.00    -0.263 NA
ATOM     18  C   UNL     1       7.505  -1.523   9.168  0.00  0.00    +0.028 A 
ATOM     19  C   UNL     1       7.072  -1.176  10.440  0.00  0.00    -0.039 A 
ENDBRANCH  13  14
ENDBRANCH   7  13
TORSDOF 4
ENDMDL
MODEL 2
REMARK VINA RESULT:    -7.457      2.375      3.555
REMARK INTER + INTRA:          -9.280
REMARK INTER:                  -8.742
REMARK INTRA:                  -0.538
REMARK UNBOUND:                -0.298
REMARK  Name = 4b.sdf
REMARK  4 active torsions:
REMARK  status: ('A' for Active; 'I' for Inactive)
REMARK    1  A    between atoms: N_7  and  C_11
REMARK    2  A    between atoms: C_9  and  C_10
REMARK    3  A    between atoms: C_10  and  O_18
REMARK    4  A    between atoms: C_11  and  C_12
REMARK                            x       y       z     vdW  Elec       q    Type
REMARK                         _______ _______ _______ _____ _____    ______ ____
ROOT
ATOM      1  C   UNL     1       5.676  -2.346  15.759  0.00  0.00    -0.061 A 
ATOM      2  C   UNL     1       6.895  -1.745  15.462  0.00  0.00    -0.060 A 
ATOM      3  C   UNL     1       6.996  -0.756  14.475  0.00  0.00    -0.038 A 
ATOM      4  C   UNL     1       5.837  -0.397  13.763  0.00  0.00    +0.050 A 
ATOM      5  C   UNL     1       4.592  -0.943  14.100  0.00  0.00    +0.005 A 
ATOM      6  C   UNL     1       4.518  -1.937  15.101  0.00  0.00    -0.052 A 
ATOM      7  N   UNL     1       5.623   0.446  12.684  0.00  0.00    -0.342 N 
ATOM      8  C   UNL     1       4.275   0.507  12.416  0.00  0.00    +0.011 A 
ATOM      9  C   UNL     1       3.600  -0.317  13.282  0.00  0.00    +0.003 A 
ENDROOT
BRANCH   9  10
ATOM     10  C   UNL     1       2.131  -0.566  13.341  0.00  0.00    +0.071 C 
BRANCH  10  11
ATOM     11  O   UNL     1       1.479  -0.201  12.130  0.00  0.00    -0.390 OA
ATOM     12  H   UNL     1       1.799   0.669  11.841  0.00  0.00    +0.000 HD
ENDBRANCH  10  11
ENDBRANCH   9  10
BRANCH   7  13
ATOM     13  C   UNL     1       6.639   1.059  11.821  0.00  0.00    +0.048 C 
BRANCH  13  14
ATOM     14  C   UNL     1       6.910   0.233  10.588  0.00  0.00    -0.025 A 
ATOM     15  C   UNL     1       7.178  -1.134  10.696  0.00  0.00    -0.039 A 
ATOM     16  C   UNL     1       7.550  -1.835   9.559  0.00  0.00    +0.028 A 
ATOM     17  N   UNL     1       7.630  -1.284   8.330  0.00  0.00    -0.263 NA
ATOM     18  C   UNL     1       7.318   0.025   8.232  0.00  0.00    +0.028 A 
ATOM     19  C   UNL     1       6.951   0.814   9.314  0.00  0.00    -0.039 A 
ENDBRANCH  13  14
ENDBRANCH   7  13
TORSDOF 4
ENDMDL
MODEL 3
REMARK VINA RESULT:    -6.991      3.436      5.363
REMARK INTER + INTRA:          -8.719
REMARK INTER:                  -8.167
REMARK INTRA:                  -0.551
REMARK UNBOUND:                -0.298
REMARK  Name = 4b.sdf
REMARK  4 active torsions:
REMARK  status: ('A' for Active; 'I' for Inactive)
REMARK    1  A    between atoms: N_7  and  C_11
REMARK    2  A    between atoms: C_9  and  C_10
REMARK    3  A    between atoms: C_10  and  O_18
REMARK    4  A    between atoms: C_11  and  C_12
REMARK                            x       y       z     vdW  Elec       q    Type
REMARK                         _______ _______ _______ _____ _____    ______ ____
ROOT
ATOM      1  C   UNL     1       7.127  -1.787  15.272  0.00  0.00    -0.061 A 
ATOM      2  C   UNL     1       5.917  -2.226  15.802  0.00  0.00    -0.060 A 
ATOM      3  C   UNL     1       4.693  -1.782  15.285  0.00  0.00    -0.038 A 
ATOM      4  C   UNL     1       4.708  -0.855  14.228  0.00  0.00    +0.050 A 
ATOM      5  C   UNL     1       5.915  -0.459  13.638  0.00  0.00    +0.005 A 
ATOM      6  C   UNL     1       7.136  -0.924  14.178  0.00  0.00    -0.052 A 
ATOM      7  N   UNL     1       3.701  -0.158  13.578  0.00  0.00    -0.342 N 
ATOM      8  C   UNL     1       4.247   0.574  12.549  0.00  0.00    +0.011 A 
ATOM      9  C   UNL     1       5.608   0.397  12.535  0.00  0.00    +0.003 A 
ENDROOT
BRANCH   9  10
ATOM     10  C   UNL     1       6.595   1.009  11.601  0.00  0.00    +0.071 C 
BRANCH  10  11
ATOM     11  O   UNL     1       5.959   1.731  10.551  0.00  0.00    -0.390 OA
ATOM     12  H   UNL     1       4.999   1.726  10.692  0.00  0.00    +0.000 HD
ENDBRANCH  10  11
ENDBRANCH   9  10
BRANCH   7  13
ATOM     13  C   UNL     1       2.297  -0.042  13.984  0.00  0.00    +0.048 C 
BRANCH  13  14
ATOM     14  C   UNL     1       1.428  -1.089  13.333  0.00  0.00    -0.025 A 
ATOM     15  C   UNL     1       1.051  -2.235  14.039  0.00  0.00    -0.039 A 
ATOM     16  C   UNL     1       0.362  -3.236  13.371  0.00  0.00    +0.028 A 
ATOM     17  N   UNL     1      -0.010  -3.156  12.077  0.00  0.00    -0.263 NA
ATOM     18  C   UNL     1       0.316  -2.022  11.422  0.00  0.00    +0.028 A 
ATOM     19  C   UNL     1       1.018  -0.972  11.999  0.00  0.00    -0.039 A 
ENDBRANCH  13  14
ENDBRANCH   7  13
TORSDOF 4
ENDMDL
