MODEL 1
REMARK VINA RESULT:    -8.326      0.000      0.000
REMARK INTER + INTRA:         -10.345
REMARK INTER:                 -10.030
REMARK INTRA:                  -0.315
REMARK UNBOUND:                -0.315
REMARK  Name = 4c.sdf
REMARK  4 active torsions:
REMARK  status: ('A' for Active; 'I' for Inactive)
REMARK    1  A    between atoms: N_7  and  C_11
REMARK    2  A    between atoms: C_9  and  C_10
REMARK    3  A    between atoms: C_10  and  O_19
REMARK    4  A    between atoms: C_11  and  C_12
REMARK                            x       y       z     vdW  Elec       q    Type
REMARK                         _______ _______ _______ _____ _____    ______ ____
ROOT
ATOM      1  C   UNL     1       5.511  -2.725  17.313  0.00  0.00    -0.061 A 
ATOM      2  C   UNL     1       4.436  -2.717  16.432  0.00  0.00    -0.060 A 
ATOM      3  C   UNL     1       4.540  -2.124  15.171  0.00  0.00    -0.038 A 
ATOM      4  C   UNL     1       5.769  -1.545  14.808  0.00  0.00    +0.050 A 
ATOM      5  C   UNL     1       6.876  -1.577  15.661  0.00  0.00    +0.005 A 
ATOM      6  C   UNL     1       6.735  -2.162  16.937  0.00  0.00    -0.052 A 
ATOM      7  N   UNL     1       6.158  -0.860  13.671  0.00  0.00    -0.342 N 
ATOM      8  C   UNL     1       7.484  -0.523  13.762  0.00  0.00    +0.011 A 
ATOM      9  C   UNL     1       7.971  -0.953  14.981  0.00  0.00    +0.003 A 
ENDROOT
BRANCH   9  10
ATOM     10  C   UNL     1       9.357  -0.791  15.503  0.00  0.00    +0.071 C 
BRANCH  10  11
ATOM     11  O   UNL     1      10.238  -0.233  14.529  0.00  0.00    -0.390 OA
ATOM     12  H   UNL     1      10.572  -0.939  13.953  0.00  0.00    +0.000 HD
ENDBRANCH  10  11
ENDBRANCH   9  10
BRANCH   7  13
ATOM     13  C   UNL     1       5.281  -0.445  12.576  0.00  0.00    +0.048 C 
BRANCH  13  14
ATOM     14  C   UNL     1       6.043  -0.270  11.286  0.00  0.00    -0.028 A 
ATOM     15  C   UNL     1       6.189   1.002  10.711  0.00  0.00    -0.055 A 
ATOM     16  C   UNL     1       6.825   1.157   9.478  0.00  0.00    -0.043 A 
ATOM     17  C   UNL     1       7.328   0.041   8.815  0.00  0.00    +0.041 A 
ATOM     18  C   UNL     1       7.225  -1.224   9.387  0.00  0.00    -0.043 A 
ATOM     19  C   UNL     1       6.585  -1.380  10.618  0.00  0.00    -0.055 A 
ATOM     20 CL   UNL     1       8.069   0.227   7.274  0.00  0.00    -0.084 Cl
ENDBRANCH  13  14
ENDBRANCH   7  13
TORSDOF 4
ENDMDL
MODEL 2
REMARK VINA RESULT:    -7.542      2.641      3.812
REMARK INTER + INTRA:          -9.401
REMARK INTER:                  -8.791
REMARK INTRA:                  -0.609
REMARK UNBOUND:                -0.315
REMARK  Name = 4c.sdf
REMARK  4 active torsions:
REMARK  status: ('A' for Active; 'I' for Inactive)
REMARK    1  A    between atoms: N_7  and  C_11
REMARK    2  A    between atoms: C_9  and  C_10
REMARK    3  A    between atoms: C_10  and  O_19
REMARK    4  A    between atoms: C_11  and  C_12
REMARK                            x       y       z     vdW  Elec       q    Type
REMARK                         _______ _______ _______ _____ _____    ______ ____
ROOT
ATOM      1  C   UNL     1       3.835  -3.144  15.996  0.00  0.00    -0.061 A 
ATOM      2  C   UNL     1       5.168  -2.756  16.064  0.00  0.00    -0.060 A 
ATOM      3  C   UNL     1       5.656  -1.711  15.276  0.00  0.00    -0.038 A 
ATOM      4  C   UNL     1       4.760  -1.051  14.417  0.00  0.00    +0.050 A 
ATOM      5  C   UNL     1       3.407  -1.397  14.362  0.00  0.00    +0.005 A 
ATOM      6  C   UNL     1       2.946  -2.471  15.152  0.00  0.00    -0.052 A 
ATOM      7  N   UNL     1       4.951  -0.030  13.503  0.00  0.00    -0.342 N 
ATOM      8  C   UNL     1       3.754   0.311  12.929  0.00  0.00    +0.011 A 
ATOM      9  C   UNL     1       2.766  -0.511  13.437  0.00  0.00    +0.003 A 
ENDROOT
BRANCH   9  10
ATOM     10  C   UNL     1       1.317  -0.497  13.087  0.00  0.00    +0.071 C 
BRANCH  10  11
ATOM     11  O   UNL     1       1.098  -0.205  11.708  0.00  0.00    -0.390 OA
ATOM     12  H   UNL     1       1.949  -0.030  11.276  0.00  0.00    +0.000 HD
ENDBRANCH  10  11
ENDBRANCH   9  10
BRANCH   7  13
ATOM     13  C   UNL     1       6.239   0.536  13.105  0.00  0.00    +0.048 C 
BRANCH  13  14
ATOM     14  C   UNL     1       6.535   0.283  11.647  0.00  0.00    -0.028 A 
ATOM     15  C   UNL     1       6.813  -1.014  11.190  0.00  0.00    -0.055 A 
ATOM     16  C   UNL     1       7.163  -1.239   9.858  0.00  0.00    -0.043 A 
ATOM     17  C   UNL     1       7.229  -0.169   8.970  0.00  0.00    +0.041 A 
ATOM     18  C   UNL     1       6.922   1.120   9.397  0.00  0.00    -0.043 A 
ATOM     19  C   UNL     1       6.575   1.346  10.731  0.00  0.00    -0.055 A 
ATOM     20 CL   UNL     1       7.707  -0.441   7.340  0.00  0.00    -0.084 Cl
ENDBRANCH  13  14
ENDBRANCH   7  13
TORSDOF 4
ENDMDL
MODEL 3
REMARK VINA RESULT:    -7.237      3.350      5.306
REMARK INTER + INTRA:          -9.033
REMARK INTER:                  -8.467
REMARK INTRA:                  -0.566
REMARK UNBOUND:                -0.315
REMARK  Name = 4c.sdf
REMARK  4 active torsions:
REMARK  status: ('A' for Active; 'I' for Inactive)
REMARK    1  A    between atoms: N_7  and  C_11
REMARK    2  A    between atoms: C_9  and  C_10
REMARK    3  A    between atoms: C_10  and  O_19
REMARK    4  A    between atoms: C_11  and  C_12
REMARK                            x       y       z     vdW  Elec       q    Type
REMARK                         _______ _______ _______ _____ _____    ______ ____
ROOT
ATOM      1  C   UNL     1       8.973  -1.645  16.286  0.00  0.00    -0.061 A 
ATOM      2  C   UNL     1       7.947  -1.859  17.199  0.00  0.00    -0.060 A 
ATOM      3  C   UNL     1       6.631  -1.492  16.905  0.00  0.00    -0.038 A 
ATOM      4  C   UNL     1       6.367  -0.909  15.653  0.00  0.00    +0.050 A 
ATOM      5  C   UNL     1       7.376  -0.721  14.704  0.00  0.00    +0.005 A 
ATOM      6  C   UNL     1       8.699  -1.080  15.037  0.00  0.00    -0.052 A 
ATOM      7  N   UNL     1       5.199  -0.412  15.103  0.00  0.00    -0.342 N 
ATOM      8  C   UNL     1       5.436   0.019  13.823  0.00  0.00    +0.011 A 
ATOM      9  C   UNL     1       6.775  -0.158  13.533  0.00  0.00    +0.003 A 
ENDROOT
BRANCH   9  10
ATOM     10  C   UNL     1       7.471   0.181  12.259  0.00  0.00    +0.071 C 
BRANCH  10  11
ATOM     11  O   UNL     1       7.113   1.475  11.776  0.00  0.00    -0.390 OA
ATOM     12  H   UNL     1       7.780   2.121  12.055  0.00  0.00    +0.000 HD
ENDBRANCH  10  11
ENDBRANCH   9  10
BRANCH   7  13
ATOM     13  C   UNL     1       3.923  -0.252  15.797  0.00  0.00    +0.048 C 
BRANCH  13  14
ATOM     14  C   UNL     1       2.830  -1.070  15.154  0.00  0.00    -0.028 A 
ATOM     15  C   UNL     1       2.814  -2.467  15.285  0.00  0.00    -0.055 A 
ATOM     16  C   UNL     1       1.849  -3.232  14.627  0.00  0.00    -0.043 A 
ATOM     17  C   UNL     1       0.888  -2.604  13.839  0.00  0.00    +0.041 A 
ATOM     18  C   UNL     1       0.867  -1.216  13.726  0.00  0.00    -0.043 A 
ATOM     19  C   UNL     1       1.834  -0.451  14.382  0.00  0.00    -0.055 A 
ATOM     20 CL   UNL     1      -0.270  -3.551  12.991  0.00  0.00    -0.084 Cl
ENDBRANCH  13  14
ENDBRANCH   7  13
TORSDOF 4
ENDMDL
