MODEL 1
REMARK VINA RESULT:    -8.271      0.000      0.000
REMARK INTER + INTRA:         -11.473
REMARK INTER:                 -10.689
REMARK INTRA:                  -0.784
REMARK UNBOUND:                -0.784
REMARK  Name = 5c.sdf
REMARK  6 active torsions:
REMARK  status: ('A' for Active; 'I' for Inactive)
REMARK    1  A    between atoms: N_7  and  C_12
REMARK    2  A    between atoms: C_9  and  C_10
REMARK    3  A    between atoms: C_11  and  C_20
REMARK    4  A    between atoms: C_12  and  C_13
REMARK    5  A    between atoms: C_20  and  O_21
REMARK    6  A    between atoms: O_21  and  C_23
REMARK                            x       y       z     vdW  Elec       q    Type
REMARK                         _______ _______ _______ _____ _____    ______ ____
ROOT
ATOM      1  C   UNL     1       8.946  -1.595  16.171  0.00  0.00    -0.061 A 
ATOM      2  C   UNL     1       7.982  -1.604  17.172  0.00  0.00    -0.060 A 
ATOM      3  C   UNL     1       6.657  -1.252  16.897  0.00  0.00    -0.038 A 
ATOM      4  C   UNL     1       6.320  -0.891  15.579  0.00  0.00    +0.050 A 
ATOM      5  C   UNL     1       7.267  -0.912  14.547  0.00  0.00    +0.007 A 
ATOM      6  C   UNL     1       8.599  -1.260  14.860  0.00  0.00    -0.052 A 
ATOM      7  N   UNL     1       5.127  -0.466  15.023  0.00  0.00    -0.342 N 
ATOM      8  C   UNL     1       5.284  -0.277  13.667  0.00  0.00    +0.013 A 
ATOM      9  C   UNL     1       6.593  -0.554  13.337  0.00  0.00    +0.000 A 
ENDROOT
BRANCH   9  10
ATOM     10  C   UNL     1       7.176  -0.495  12.027  0.00  0.00    -0.046 C 
ATOM     11  C   UNL     1       6.696  -1.105  10.930  0.00  0.00    +0.023 C 
BRANCH  11  12
ATOM     12  C   UNL     1       7.308  -1.054   9.586  0.00  0.00    +0.332 C 
ATOM     13  O   UNL     1       7.880  -2.025   9.109  0.00  0.00    -0.246 OA
BRANCH  12  14
ATOM     14  O   UNL     1       7.155   0.148   8.982  0.00  0.00    -0.465 OA
ATOM     15  C   UNL     1       7.719   0.205   7.669  0.00  0.00    +0.082 C 
ENDBRANCH  12  14
ENDBRANCH  11  12
ENDBRANCH   9  10
BRANCH   7  16
ATOM     16  C   UNL     1       3.889  -0.181  15.750  0.00  0.00    +0.048 C 
BRANCH  16  17
ATOM     17  C   UNL     1       2.738  -0.995  15.212  0.00  0.00    -0.028 A 
ATOM     18  C   UNL     1       2.740  -2.394  15.326  0.00  0.00    -0.055 A 
ATOM     19  C   UNL     1       1.758  -3.158  14.692  0.00  0.00    -0.043 A 
ATOM     20  C   UNL     1       0.757  -2.528  13.959  0.00  0.00    +0.041 A 
ATOM     21  C   UNL     1       0.701  -1.137  13.894  0.00  0.00    -0.043 A 
ATOM     22  C   UNL     1       1.686  -0.373  14.521  0.00  0.00    -0.055 A 
ATOM     23 CL   UNL     1      -0.399  -3.472  13.103  0.00  0.00    -0.084 Cl
ENDBRANCH  16  17
ENDBRANCH   7  16
TORSDOF 5
ENDMDL
MODEL 2
REMARK VINA RESULT:    -8.251      5.206      8.466
REMARK INTER + INTRA:         -11.447
REMARK INTER:                 -10.797
REMARK INTRA:                  -0.650
REMARK UNBOUND:                -0.784
REMARK  Name = 5c.sdf
REMARK  6 active torsions:
REMARK  status: ('A' for Active; 'I' for Inactive)
REMARK    1  A    between atoms: N_7  and  C_12
REMARK    2  A    between atoms: C_9  and  C_10
REMARK    3  A    between atoms: C_11  and  C_20
REMARK    4  A    between atoms: C_12  and  C_13
REMARK    5  A    between atoms: C_20  and  O_21
REMARK    6  A    between atoms: O_21  and  C_23
REMARK                            x       y       z     vdW  Elec       q    Type
REMARK                         _______ _______ _______ _____ _____    ______ ____
ROOT
ATOM      1  C   UNL     1       7.895   5.327   6.908  0.00  0.00    -0.061 A 
ATOM      2  C   UNL     1       8.866   4.419   7.312  0.00  0.00    -0.060 A 
ATOM      3  C   UNL     1       8.553   3.069   7.504  0.00  0.00    -0.038 A 
ATOM      4  C   UNL     1       7.231   2.650   7.273  0.00  0.00    +0.050 A 
ATOM      5  C   UNL     1       6.244   3.540   6.828  0.00  0.00    +0.007 A 
ATOM      6  C   UNL     1       6.589   4.899   6.657  0.00  0.00    -0.052 A 
ATOM      7  N   UNL     1       6.624   1.414   7.413  0.00  0.00    -0.342 N 
ATOM      8  C   UNL     1       5.307   1.492   7.016  0.00  0.00    +0.013 A 
ATOM      9  C   UNL     1       5.041   2.790   6.638  0.00  0.00    +0.000 A 
ENDROOT
BRANCH   9  10
ATOM     10  C   UNL     1       3.793   3.299   6.145  0.00  0.00    -0.046 C 
ATOM     11  C   UNL     1       2.631   2.627   6.118  0.00  0.00    +0.023 C 
BRANCH  11  12
ATOM     12  C   UNL     1       1.351   3.150   5.595  0.00  0.00    +0.332 C 
ATOM     13  O   UNL     1       0.723   4.012   6.194  0.00  0.00    -0.246 OA
BRANCH  12  14
ATOM     14  O   UNL     1       0.989   2.578   4.422  0.00  0.00    -0.465 OA
ATOM     15  C   UNL     1       1.318   1.189   4.337  0.00  0.00    +0.082 C 
ENDBRANCH  12  14
ENDBRANCH  11  12
ENDBRANCH   9  10
BRANCH   7  16
ATOM     16  C   UNL     1       7.241   0.208   7.966  0.00  0.00    +0.048 C 
BRANCH  16  17
ATOM     17  C   UNL     1       6.962   0.077   9.443  0.00  0.00    -0.028 A 
ATOM     18  C   UNL     1       6.718   1.216  10.226  0.00  0.00    -0.055 A 
ATOM     19  C   UNL     1       6.618   1.114  11.614  0.00  0.00    -0.043 A 
ATOM     20  C   UNL     1       6.741  -0.130  12.228  0.00  0.00    +0.041 A 
ATOM     21  C   UNL     1       6.915  -1.279  11.460  0.00  0.00    -0.043 A 
ATOM     22  C   UNL     1       7.022  -1.177  10.071  0.00  0.00    -0.055 A 
ATOM     23 CL   UNL     1       6.709  -0.244  13.943  0.00  0.00    -0.084 Cl
ENDBRANCH  16  17
ENDBRANCH   7  16
TORSDOF 5
ENDMDL
MODEL 3
REMARK VINA RESULT:    -8.107      8.820     11.094
REMARK INTER + INTRA:         -11.260
REMARK INTER:                 -10.456
REMARK INTRA:                  -0.805
REMARK UNBOUND:                -0.784
REMARK  Name = 5c.sdf
REMARK  6 active torsions:
REMARK  status: ('A' for Active; 'I' for Inactive)
REMARK    1  A    between atoms: N_7  and  C_12
REMARK    2  A    between atoms: C_9  and  C_10
REMARK    3  A    between atoms: C_11  and  C_20
REMARK    4  A    between atoms: C_12  and  C_13
REMARK    5  A    between atoms: C_20  and  O_21
REMARK    6  A    between atoms: O_21  and  C_23
REMARK                            x       y       z     vdW  Elec       q    Type
REMARK                         _______ _______ _______ _____ _____    ______ ____
ROOT
ATOM      1  C   UNL     1       0.679   0.902   3.026  0.00  0.00    -0.061 A 
ATOM      2  C   UNL     1      -0.660   0.989   3.388  0.00  0.00    -0.060 A 
ATOM      3  C   UNL     1      -1.046   1.651   4.557  0.00  0.00    -0.038 A 
ATOM      4  C   UNL     1      -0.047   2.233   5.358  0.00  0.00    +0.050 A 
ATOM      5  C   UNL     1       1.305   2.192   4.993  0.00  0.00    +0.007 A 
ATOM      6  C   UNL     1       1.664   1.504   3.813  0.00  0.00    -0.052 A 
ATOM      7  N   UNL     1      -0.117   2.906   6.566  0.00  0.00    -0.342 N 
ATOM      8  C   UNL     1       1.139   3.334   6.936  0.00  0.00    +0.013 A 
ATOM      9  C   UNL     1       2.041   2.918   5.980  0.00  0.00    +0.000 A 
ENDROOT
BRANCH   9  10
ATOM     10  C   UNL     1       3.454   3.166   5.973  0.00  0.00    -0.046 C 
ATOM     11  C   UNL     1       4.317   2.803   6.936  0.00  0.00    +0.023 C 
BRANCH  11  12
ATOM     12  C   UNL     1       5.769   3.074   6.932  0.00  0.00    +0.332 C 
ATOM     13  O   UNL     1       6.523   2.499   6.158  0.00  0.00    -0.246 OA
BRANCH  12  14
ATOM     14  O   UNL     1       6.135   4.001   7.849  0.00  0.00    -0.465 OA
ATOM     15  C   UNL     1       6.894   5.082   7.299  0.00  0.00    +0.082 C 
ENDBRANCH  12  14
ENDBRANCH  11  12
ENDBRANCH   9  10
BRANCH   7  16
ATOM     16  C   UNL     1      -1.316   3.086   7.384  0.00  0.00    +0.048 C 
BRANCH  16  17
ATOM     17  C   UNL     1      -2.139   4.256   6.902  0.00  0.00    -0.028 A 
ATOM     18  C   UNL     1      -1.827   5.561   7.310  0.00  0.00    -0.055 A 
ATOM     19  C   UNL     1      -2.677   6.624   6.996  0.00  0.00    -0.043 A 
ATOM     20  C   UNL     1      -3.832   6.391   6.255  0.00  0.00    +0.041 A 
ATOM     21  C   UNL     1      -4.120   5.112   5.784  0.00  0.00    -0.043 A 
ATOM     22  C   UNL     1      -3.275   4.047   6.103  0.00  0.00    -0.055 A 
ATOM     23 CL   UNL     1      -4.925   7.682   5.946  0.00  0.00    -0.084 Cl
ENDBRANCH  16  17
ENDBRANCH   7  16
TORSDOF 5
ENDMDL
