MODEL 1
REMARK VINA RESULT:    -6.992      0.000      0.000
REMARK INTER + INTRA:          -8.437
REMARK INTER:                  -8.218
REMARK INTRA:                  -0.218
REMARK UNBOUND:                -0.218
REMARK  Name = 7.sdf
REMARK  4 active torsions:
REMARK  status: ('A' for Active; 'I' for Inactive)
REMARK    1  A    between atoms: C_9  and  C_10
REMARK    2  A    between atoms: C_10  and  C_11
REMARK    3  A    between atoms: C_11  and  O_13
REMARK    4  A    between atoms: O_13  and  C_14
REMARK                            x       y       z     vdW  Elec       q    Type
REMARK                         _______ _______ _______ _____ _____    ______ ____
ROOT
ATOM      1  C   UNL     1       6.030   0.300  11.105  0.00  0.00    -0.061 A 
ATOM      2  C   UNL     1       6.449  -1.029  11.110  0.00  0.00    -0.060 A 
ATOM      3  C   UNL     1       7.181  -1.554  10.043  0.00  0.00    -0.038 A 
ATOM      4  C   UNL     1       7.487  -0.697   8.979  0.00  0.00    +0.047 A 
ATOM      5  C   UNL     1       7.099   0.644   8.949  0.00  0.00    +0.003 A 
ATOM      6  C   UNL     1       6.348   1.145  10.034  0.00  0.00    -0.052 A 
ATOM      7  N   UNL     1       8.177  -0.945   7.816  0.00  0.00    -0.360 N 
ATOM      8  C   UNL     1       8.276   0.198   7.071  0.00  0.00    +0.006 A 
ATOM      9  C   UNL     1       7.621   1.215   7.741  0.00  0.00    -0.012 A 
ATOM     10  H   UNL     1       8.547  -1.820   7.557  0.00  0.00    +0.000 HD
ENDROOT
BRANCH   9  11
ATOM     11  C   UNL     1       7.533   2.644   7.302  0.00  0.00    +0.072 C 
BRANCH  11  12
ATOM     12  C   UNL     1       8.525   3.567   7.980  0.00  0.00    +0.311 C 
ATOM     13  O   UNL     1       8.835   3.576   9.163  0.00  0.00    -0.250 OA
BRANCH  12  14
ATOM     14  O   UNL     1       9.023   4.433   7.042  0.00  0.00    -0.468 OA
ATOM     15  C   UNL     1       8.040   5.047   6.204  0.00  0.00    +0.082 C 
ENDBRANCH  12  14
ENDBRANCH  11  12
ENDBRANCH   9  11
TORSDOF 3
ENDMDL
MODEL 2
REMARK VINA RESULT:    -6.464      3.490      5.994
REMARK INTER + INTRA:          -7.816
REMARK INTER:                  -7.600
REMARK INTRA:                  -0.216
REMARK UNBOUND:                -0.218
REMARK  Name = 7.sdf
REMARK  4 active torsions:
REMARK  status: ('A' for Active; 'I' for Inactive)
REMARK    1  A    between atoms: C_9  and  C_10
REMARK    2  A    between atoms: C_10  and  C_11
REMARK    3  A    between atoms: C_11  and  O_13
REMARK    4  A    between atoms: O_13  and  C_14
REMARK                            x       y       z     vdW  Elec       q    Type
REMARK                         _______ _______ _______ _____ _____    ______ ____
ROOT
ATOM      1  C   UNL     1       7.809  -1.641   8.843  0.00  0.00    -0.061 A 
ATOM      2  C   UNL     1       7.614  -0.517   8.043  0.00  0.00    -0.060 A 
ATOM      3  C   UNL     1       7.042   0.645   8.567  0.00  0.00    -0.038 A 
ATOM      4  C   UNL     1       6.684   0.641   9.920  0.00  0.00    +0.047 A 
ATOM      5  C   UNL     1       6.880  -0.461  10.754  0.00  0.00    +0.003 A 
ATOM      6  C   UNL     1       7.447  -1.627  10.196  0.00  0.00    -0.052 A 
ATOM      7  N   UNL     1       6.106   1.628  10.683  0.00  0.00    -0.360 N 
ATOM      8  C   UNL     1       5.967   1.208  11.977  0.00  0.00    +0.006 A 
ATOM      9  C   UNL     1       6.441  -0.089  12.069  0.00  0.00    -0.012 A 
ATOM     10  H   UNL     1       5.831   2.512  10.346  0.00  0.00    +0.000 HD
ENDROOT
BRANCH   9  11
ATOM     11  C   UNL     1       6.523  -0.909  13.318  0.00  0.00    +0.072 C 
BRANCH  11  12
ATOM     12  C   UNL     1       7.785  -0.689  14.127  0.00  0.00    +0.311 C 
ATOM     13  O   UNL     1       8.810  -0.134  13.758  0.00  0.00    -0.250 OA
BRANCH  12  14
ATOM     14  O   UNL     1       7.606  -1.241  15.369  0.00  0.00    -0.468 OA
ATOM     15  C   UNL     1       8.765  -1.232  16.206  0.00  0.00    +0.082 C 
ENDBRANCH  12  14
ENDBRANCH  11  12
ENDBRANCH   9  11
TORSDOF 3
ENDMDL
MODEL 3
REMARK VINA RESULT:    -6.237      7.133      9.537
REMARK INTER + INTRA:          -7.549
REMARK INTER:                  -7.245
REMARK INTRA:                  -0.305
REMARK UNBOUND:                -0.218
REMARK  Name = 7.sdf
REMARK  4 active torsions:
REMARK  status: ('A' for Active; 'I' for Inactive)
REMARK    1  A    between atoms: C_9  and  C_10
REMARK    2  A    between atoms: C_10  and  C_11
REMARK    3  A    between atoms: C_11  and  O_13
REMARK    4  A    between atoms: O_13  and  C_14
REMARK                            x       y       z     vdW  Elec       q    Type
REMARK                         _______ _______ _______ _____ _____    ______ ____
ROOT
ATOM      1  C   UNL     1       7.154  -0.416  13.657  0.00  0.00    -0.061 A 
ATOM      2  C   UNL     1       8.516  -0.128  13.591  0.00  0.00    -0.060 A 
ATOM      3  C   UNL     1       9.367  -0.439  14.655  0.00  0.00    -0.038 A 
ATOM      4  C   UNL     1       8.805  -1.056  15.779  0.00  0.00    +0.047 A 
ATOM      5  C   UNL     1       7.449  -1.375  15.872  0.00  0.00    +0.003 A 
ATOM      6  C   UNL     1       6.609  -1.037  14.789  0.00  0.00    -0.052 A 
ATOM      7  N   UNL     1       9.397  -1.459  16.953  0.00  0.00    -0.360 N 
ATOM      8  C   UNL     1       8.475  -2.058  17.767  0.00  0.00    +0.006 A 
ATOM      9  C   UNL     1       7.247  -2.030  17.132  0.00  0.00    -0.012 A 
ATOM     10  H   UNL     1      10.348  -1.336  17.175  0.00  0.00    +0.000 HD
ENDROOT
BRANCH   9  11
ATOM     11  C   UNL     1       5.975  -2.626  17.650  0.00  0.00    +0.072 C 
BRANCH  11  12
ATOM     12  C   UNL     1       5.305  -1.817  18.741  0.00  0.00    +0.311 C 
ATOM     13  O   UNL     1       5.059  -2.180  19.883  0.00  0.00    -0.250 OA
BRANCH  12  14
ATOM     14  O   UNL     1       4.988  -0.583  18.235  0.00  0.00    -0.468 OA
ATOM     15  C   UNL     1       3.850  -0.560  17.369  0.00  0.00    +0.082 C 
ENDBRANCH  12  14
ENDBRANCH  11  12
ENDBRANCH   9  11
TORSDOF 3
ENDMDL
