MODEL 1
REMARK VINA RESULT:    -7.642      0.000      0.000
REMARK INTER + INTRA:         -10.586
REMARK INTER:                  -9.876
REMARK INTRA:                  -0.710
REMARK UNBOUND:                -0.710
REMARK  Name = 7b.sdf
REMARK  6 active torsions:
REMARK  status: ('A' for Active; 'I' for Inactive)
REMARK    1  A    between atoms: N_7  and  C_12
REMARK    2  A    between atoms: C_9  and  C_10
REMARK    3  A    between atoms: C_10  and  C_11
REMARK    4  A    between atoms: C_11  and  O_20
REMARK    5  A    between atoms: C_12  and  C_13
REMARK    6  A    between atoms: O_20  and  C_21
REMARK                            x       y       z     vdW  Elec       q    Type
REMARK                         _______ _______ _______ _____ _____    ______ ____
ROOT
ATOM      1  C   UNL     1       9.343  -1.248  15.545  0.00  0.00    -0.061 A 
ATOM      2  C   UNL     1       9.719  -0.380  14.526  0.00  0.00    -0.060 A 
ATOM      3  C   UNL     1       8.768   0.171  13.662  0.00  0.00    -0.038 A 
ATOM      4  C   UNL     1       7.421  -0.178  13.848  0.00  0.00    +0.050 A 
ATOM      5  C   UNL     1       7.012  -1.016  14.892  0.00  0.00    +0.004 A 
ATOM      6  C   UNL     1       7.995  -1.563  15.745  0.00  0.00    -0.052 A 
ATOM      7  N   UNL     1       6.284   0.162  13.143  0.00  0.00    -0.342 N 
ATOM      8  C   UNL     1       5.175  -0.381  13.743  0.00  0.00    +0.010 A 
ATOM      9  C   UNL     1       5.584  -1.108  14.843  0.00  0.00    -0.012 A 
ENDROOT
BRANCH   9  10
ATOM     10  C   UNL     1       4.698  -1.855  15.789  0.00  0.00    +0.072 C 
BRANCH  10  11
ATOM     11  C   UNL     1       4.319  -1.049  17.015  0.00  0.00    +0.311 C 
ATOM     12  O   UNL     1       5.078  -0.597  17.863  0.00  0.00    -0.250 OA
BRANCH  11  13
ATOM     13  O   UNL     1       2.959  -0.884  17.033  0.00  0.00    -0.468 OA
ATOM     14  C   UNL     1       2.512   0.310  16.391  0.00  0.00    +0.082 C 
ENDBRANCH  11  13
ENDBRANCH  10  11
ENDBRANCH   9  10
BRANCH   7  15
ATOM     15  C   UNL     1       6.243   0.913  11.890  0.00  0.00    +0.048 C 
BRANCH  15  16
ATOM     16  C   UNL     1       6.731   0.157  10.678  0.00  0.00    -0.025 A 
ATOM     17  C   UNL     1       7.104  -1.191  10.696  0.00  0.00    -0.039 A 
ATOM     18  C   UNL     1       7.566  -1.775   9.526  0.00  0.00    +0.028 A 
ATOM     19  N   UNL     1       7.665  -1.126   8.348  0.00  0.00    -0.263 NA
ATOM     20  C   UNL     1       7.282   0.166   8.338  0.00  0.00    +0.028 A 
ATOM     21  C   UNL     1       6.814   0.839   9.457  0.00  0.00    -0.039 A 
ENDBRANCH  15  16
ENDBRANCH   7  15
TORSDOF 5
ENDMDL
MODEL 2
REMARK VINA RESULT:    -7.599      1.743      3.605
REMARK INTER + INTRA:         -10.530
REMARK INTER:                 -10.076
REMARK INTRA:                  -0.454
REMARK UNBOUND:                -0.710
REMARK  Name = 7b.sdf
REMARK  6 active torsions:
REMARK  status: ('A' for Active; 'I' for Inactive)
REMARK    1  A    between atoms: N_7  and  C_12
REMARK    2  A    between atoms: C_9  and  C_10
REMARK    3  A    between atoms: C_10  and  C_11
REMARK    4  A    between atoms: C_11  and  O_20
REMARK    5  A    between atoms: C_12  and  C_13
REMARK    6  A    between atoms: O_20  and  C_21
REMARK                            x       y       z     vdW  Elec       q    Type
REMARK                         _______ _______ _______ _____ _____    ______ ____
ROOT
ATOM      1  C   UNL     1       3.093  -1.213  14.786  0.00  0.00    -0.061 A 
ATOM      2  C   UNL     1       2.727  -0.512  13.642  0.00  0.00    -0.060 A 
ATOM      3  C   UNL     1       3.694   0.010  12.778  0.00  0.00    -0.038 A 
ATOM      4  C   UNL     1       5.047  -0.190  13.097  0.00  0.00    +0.050 A 
ATOM      5  C   UNL     1       5.440  -0.928  14.220  0.00  0.00    +0.004 A 
ATOM      6  C   UNL     1       4.442  -1.438  15.078  0.00  0.00    -0.052 A 
ATOM      7  N   UNL     1       6.203   0.234  12.475  0.00  0.00    -0.342 N 
ATOM      8  C   UNL     1       7.303  -0.262  13.131  0.00  0.00    +0.010 A 
ATOM      9  C   UNL     1       6.870  -1.002  14.212  0.00  0.00    -0.012 A 
ENDROOT
BRANCH   9  10
ATOM     10  C   UNL     1       7.738  -1.730  15.190  0.00  0.00    +0.072 C 
BRANCH  10  11
ATOM     11  C   UNL     1       8.647  -0.811  15.981  0.00  0.00    +0.311 C 
ATOM     12  O   UNL     1       9.627  -0.207  15.563  0.00  0.00    -0.250 OA
BRANCH  11  13
ATOM     13  O   UNL     1       8.193  -0.742  17.271  0.00  0.00    -0.468 OA
ATOM     14  C   UNL     1       8.130  -2.007  17.930  0.00  0.00    +0.082 C 
ENDBRANCH  11  13
ENDBRANCH  10  11
ENDBRANCH   9  10
BRANCH   7  15
ATOM     15  C   UNL     1       6.281   1.150  11.338  0.00  0.00    +0.048 C 
BRANCH  15  16
ATOM     16  C   UNL     1       6.813   0.540  10.064  0.00  0.00    -0.025 A 
ATOM     17  C   UNL     1       7.110  -0.819   9.913  0.00  0.00    -0.039 A 
ATOM     18  C   UNL     1       7.621  -1.263   8.703  0.00  0.00    +0.028 A 
ATOM     19  N   UNL     1       7.838  -0.465   7.638  0.00  0.00    -0.263 NA
ATOM     20  C   UNL     1       7.528   0.839   7.788  0.00  0.00    +0.028 A 
ATOM     21  C   UNL     1       7.019   1.378   8.960  0.00  0.00    -0.039 A 
ENDBRANCH  15  16
ENDBRANCH   7  15
TORSDOF 5
ENDMDL
MODEL 3
REMARK VINA RESULT:    -7.538      2.331      2.958
REMARK INTER + INTRA:         -10.451
REMARK INTER:                  -9.872
REMARK INTRA:                  -0.580
REMARK UNBOUND:                -0.710
REMARK  Name = 7b.sdf
REMARK  6 active torsions:
REMARK  status: ('A' for Active; 'I' for Inactive)
REMARK    1  A    between atoms: N_7  and  C_12
REMARK    2  A    between atoms: C_9  and  C_10
REMARK    3  A    between atoms: C_10  and  C_11
REMARK    4  A    between atoms: C_11  and  O_20
REMARK    5  A    between atoms: C_12  and  C_13
REMARK    6  A    between atoms: O_20  and  C_21
REMARK                            x       y       z     vdW  Elec       q    Type
REMARK                         _______ _______ _______ _____ _____    ______ ____
ROOT
ATOM      1  C   UNL     1       6.348  -2.148  15.855  0.00  0.00    -0.061 A 
ATOM      2  C   UNL     1       7.433  -1.462  15.318  0.00  0.00    -0.060 A 
ATOM      3  C   UNL     1       7.265  -0.571  14.254  0.00  0.00    -0.038 A 
ATOM      4  C   UNL     1       5.972  -0.388  13.739  0.00  0.00    +0.050 A 
ATOM      5  C   UNL     1       4.859  -1.034  14.289  0.00  0.00    +0.004 A 
ATOM      6  C   UNL     1       5.059  -1.934  15.358  0.00  0.00    -0.052 A 
ATOM      7  N   UNL     1       5.509   0.375  12.686  0.00  0.00    -0.342 N 
ATOM      8  C   UNL     1       4.143   0.278  12.597  0.00  0.00    +0.010 A 
ATOM      9  C   UNL     1       3.699  -0.577  13.586  0.00  0.00    -0.012 A 
ENDROOT
BRANCH   9  10
ATOM     10  C   UNL     1       2.276  -0.956  13.855  0.00  0.00    +0.072 C 
BRANCH  10  11
ATOM     11  C   UNL     1       1.324  -0.514  12.762  0.00  0.00    +0.311 C 
ATOM     12  O   UNL     1       1.314  -0.891  11.597  0.00  0.00    -0.250 OA
BRANCH  11  13
ATOM     13  O   UNL     1       0.441   0.393  13.284  0.00  0.00    -0.468 OA
ATOM     14  C   UNL     1      -0.863   0.331  12.703  0.00  0.00    +0.082 C 
ENDBRANCH  11  13
ENDBRANCH  10  11
ENDBRANCH   9  10
BRANCH   7  15
ATOM     15  C   UNL     1       6.334   1.116  11.734  0.00  0.00    +0.048 C 
BRANCH  15  16
ATOM     16  C   UNL     1       6.788   0.323  10.533  0.00  0.00    -0.025 A 
ATOM     17  C   UNL     1       7.144  -1.029  10.578  0.00  0.00    -0.039 A 
ATOM     18  C   UNL     1       7.575  -1.648   9.415  0.00  0.00    +0.028 A 
ATOM     19  N   UNL     1       7.659  -1.031   8.218  0.00  0.00    -0.263 NA
ATOM     20  C   UNL     1       7.293   0.266   8.182  0.00  0.00    +0.028 A 
ATOM     21  C   UNL     1       6.855   0.973   9.293  0.00  0.00    -0.039 A 
ENDBRANCH  15  16
ENDBRANCH   7  15
TORSDOF 5
ENDMDL
