MODEL 1
REMARK VINA RESULT:    -8.110      0.000      0.000
REMARK INTER + INTRA:         -11.059
REMARK INTER:                 -10.481
REMARK INTRA:                  -0.578
REMARK UNBOUND:                -0.578
REMARK  Name = 7c.sdf
REMARK  6 active torsions:
REMARK  status: ('A' for Active; 'I' for Inactive)
REMARK    1  A    between atoms: N_7  and  C_12
REMARK    2  A    between atoms: C_9  and  C_10
REMARK    3  A    between atoms: C_10  and  C_11
REMARK    4  A    between atoms: C_11  and  O_21
REMARK    5  A    between atoms: C_12  and  C_13
REMARK    6  A    between atoms: O_21  and  C_22
REMARK                            x       y       z     vdW  Elec       q    Type
REMARK                         _______ _______ _______ _____ _____    ______ ____
ROOT
ATOM      1  C   UNL     1       7.995   5.280   7.015  0.00  0.00    -0.061 A 
ATOM      2  C   UNL     1       8.922   4.288   7.310  0.00  0.00    -0.060 A 
ATOM      3  C   UNL     1       8.531   2.950   7.431  0.00  0.00    -0.038 A 
ATOM      4  C   UNL     1       7.177   2.631   7.236  0.00  0.00    +0.050 A 
ATOM      5  C   UNL     1       6.236   3.608   6.893  0.00  0.00    +0.004 A 
ATOM      6  C   UNL     1       6.654   4.952   6.796  0.00  0.00    -0.052 A 
ATOM      7  N   UNL     1       6.493   1.434   7.333  0.00  0.00    -0.342 N 
ATOM      8  C   UNL     1       5.177   1.617   6.985  0.00  0.00    +0.010 A 
ATOM      9  C   UNL     1       4.977   2.954   6.703  0.00  0.00    -0.012 A 
ENDROOT
BRANCH   9  10
ATOM     10  C   UNL     1       3.692   3.587   6.275  0.00  0.00    +0.072 C 
BRANCH  10  11
ATOM     11  C   UNL     1       2.626   2.580   5.899  0.00  0.00    +0.311 C 
ATOM     12  O   UNL     1       2.472   2.046   4.811  0.00  0.00    -0.250 OA
BRANCH  11  13
ATOM     13  O   UNL     1       1.825   2.355   6.988  0.00  0.00    -0.468 OA
ATOM     14  C   UNL     1       0.691   3.219   7.057  0.00  0.00    +0.082 C 
ENDBRANCH  11  13
ENDBRANCH  10  11
ENDBRANCH   9  10
BRANCH   7  15
ATOM     15  C   UNL     1       7.034   0.164   7.809  0.00  0.00    +0.048 C 
BRANCH  15  16
ATOM     16  C   UNL     1       6.895   0.037   9.306  0.00  0.00    -0.028 A 
ATOM     17  C   UNL     1       6.676   1.172  10.099  0.00  0.00    -0.055 A 
ATOM     18  C   UNL     1       6.672   1.074  11.491  0.00  0.00    -0.043 A 
ATOM     19  C   UNL     1       6.879  -0.161  12.099  0.00  0.00    +0.041 A 
ATOM     20  C   UNL     1       7.050  -1.307  11.326  0.00  0.00    -0.043 A 
ATOM     21  C   UNL     1       7.054  -1.210   9.934  0.00  0.00    -0.055 A 
ATOM     22 CL   UNL     1       6.948  -0.269  13.814  0.00  0.00    -0.084 Cl
ENDBRANCH  15  16
ENDBRANCH   7  15
TORSDOF 5
ENDMDL
MODEL 2
REMARK VINA RESULT:    -7.913      5.482      8.502
REMARK INTER + INTRA:         -10.805
REMARK INTER:                 -10.041
REMARK INTRA:                  -0.763
REMARK UNBOUND:                -0.578
REMARK  Name = 7c.sdf
REMARK  6 active torsions:
REMARK  status: ('A' for Active; 'I' for Inactive)
REMARK    1  A    between atoms: N_7  and  C_12
REMARK    2  A    between atoms: C_9  and  C_10
REMARK    3  A    between atoms: C_10  and  C_11
REMARK    4  A    between atoms: C_11  and  O_21
REMARK    5  A    between atoms: C_12  and  C_13
REMARK    6  A    between atoms: O_21  and  C_22
REMARK                            x       y       z     vdW  Elec       q    Type
REMARK                         _______ _______ _______ _____ _____    ______ ____
ROOT
ATOM      1  C   UNL     1       8.948  -1.797  16.647  0.00  0.00    -0.061 A 
ATOM      2  C   UNL     1       7.875  -2.003  17.505  0.00  0.00    -0.060 A 
ATOM      3  C   UNL     1       6.577  -1.633  17.136  0.00  0.00    -0.038 A 
ATOM      4  C   UNL     1       6.384  -1.054  15.870  0.00  0.00    +0.050 A 
ATOM      5  C   UNL     1       7.444  -0.879  14.975  0.00  0.00    +0.004 A 
ATOM      6  C   UNL     1       8.745  -1.244  15.380  0.00  0.00    -0.052 A 
ATOM      7  N   UNL     1       5.253  -0.552  15.255  0.00  0.00    -0.342 N 
ATOM      8  C   UNL     1       5.557  -0.144  13.979  0.00  0.00    +0.010 A 
ATOM      9  C   UNL     1       6.908  -0.332  13.766  0.00  0.00    -0.012 A 
ENDROOT
BRANCH   9  10
ATOM     10  C   UNL     1       7.657  -0.028  12.508  0.00  0.00    +0.072 C 
BRANCH  10  11
ATOM     11  C   UNL     1       6.753   0.232  11.322  0.00  0.00    +0.311 C 
ATOM     12  O   UNL     1       6.397   1.321  10.895  0.00  0.00    -0.250 OA
BRANCH  11  13
ATOM     13  O   UNL     1       6.370  -0.968  10.785  0.00  0.00    -0.468 OA
ATOM     14  C   UNL     1       7.332  -1.534   9.894  0.00  0.00    +0.082 C 
ENDBRANCH  11  13
ENDBRANCH  10  11
ENDBRANCH   9  10
BRANCH   7  15
ATOM     15  C   UNL     1       3.936  -0.387  15.864  0.00  0.00    +0.048 C 
BRANCH  15  16
ATOM     16  C   UNL     1       2.873  -1.114  15.077  0.00  0.00    -0.028 A 
ATOM     17  C   UNL     1       1.969  -0.403  14.277  0.00  0.00    -0.055 A 
ATOM     18  C   UNL     1       0.910  -1.059  13.648  0.00  0.00    -0.043 A 
ATOM     19  C   UNL     1       0.754  -2.433  13.810  0.00  0.00    +0.041 A 
ATOM     20  C   UNL     1       1.671  -3.163  14.561  0.00  0.00    -0.043 A 
ATOM     21  C   UNL     1       2.731  -2.507  15.190  0.00  0.00    -0.055 A 
ATOM     22 CL   UNL     1      -0.593  -3.231  13.096  0.00  0.00    -0.084 Cl
ENDBRANCH  15  16
ENDBRANCH   7  15
TORSDOF 5
ENDMDL
MODEL 3
REMARK VINA RESULT:    -7.864      4.648      7.577
REMARK INTER + INTRA:         -10.742
REMARK INTER:                  -9.736
REMARK INTRA:                  -1.006
REMARK UNBOUND:                -0.578
REMARK  Name = 7c.sdf
REMARK  6 active torsions:
REMARK  status: ('A' for Active; 'I' for Inactive)
REMARK    1  A    between atoms: N_7  and  C_12
REMARK    2  A    between atoms: C_9  and  C_10
REMARK    3  A    between atoms: C_10  and  C_11
REMARK    4  A    between atoms: C_11  and  O_21
REMARK    5  A    between atoms: C_12  and  C_13
REMARK    6  A    between atoms: O_21  and  C_22
REMARK                            x       y       z     vdW  Elec       q    Type
REMARK                         _______ _______ _______ _____ _____    ______ ____
ROOT
ATOM      1  C   UNL     1       3.621  -3.182  15.891  0.00  0.00    -0.061 A 
ATOM      2  C   UNL     1       4.945  -2.764  15.958  0.00  0.00    -0.060 A 
ATOM      3  C   UNL     1       5.389  -1.662  15.219  0.00  0.00    -0.038 A 
ATOM      4  C   UNL     1       4.461  -0.981  14.414  0.00  0.00    +0.050 A 
ATOM      5  C   UNL     1       3.114  -1.358  14.368  0.00  0.00    +0.004 A 
ATOM      6  C   UNL     1       2.697  -2.485  15.109  0.00  0.00    -0.052 A 
ATOM      7  N   UNL     1       4.605   0.089  13.552  0.00  0.00    -0.342 N 
ATOM      8  C   UNL     1       3.383   0.441  13.033  0.00  0.00    +0.010 A 
ATOM      9  C   UNL     1       2.430  -0.433  13.518  0.00  0.00    -0.012 A 
ENDROOT
BRANCH   9  10
ATOM     10  C   UNL     1       0.967  -0.406  13.212  0.00  0.00    +0.072 C 
BRANCH  10  11
ATOM     11  C   UNL     1       0.619  -1.060  11.892  0.00  0.00    +0.311 C 
ATOM     12  O   UNL     1       0.472  -0.504  10.814  0.00  0.00    -0.250 OA
BRANCH  11  13
ATOM     13  O   UNL     1       0.477  -2.408  12.090  0.00  0.00    -0.468 OA
ATOM     14  C   UNL     1      -0.487  -2.745  13.088  0.00  0.00    +0.082 C 
ENDBRANCH  11  13
ENDBRANCH  10  11
ENDBRANCH   9  10
BRANCH   7  15
ATOM     15  C   UNL     1       5.862   0.724  13.162  0.00  0.00    +0.048 C 
BRANCH  15  16
ATOM     16  C   UNL     1       6.255   0.342  11.757  0.00  0.00    -0.028 A 
ATOM     17  C   UNL     1       6.624  -0.977  11.455  0.00  0.00    -0.055 A 
ATOM     18  C   UNL     1       7.108  -1.305  10.188  0.00  0.00    -0.043 A 
ATOM     19  C   UNL     1       7.216  -0.319   9.211  0.00  0.00    +0.041 A 
ATOM     20  C   UNL     1       6.807   0.985   9.478  0.00  0.00    -0.043 A 
ATOM     21  C   UNL     1       6.324   1.314  10.746  0.00  0.00    -0.055 A 
ATOM     22 CL   UNL     1       7.880  -0.708   7.673  0.00  0.00    -0.084 Cl
ENDBRANCH  15  16
ENDBRANCH   7  15
TORSDOF 5
ENDMDL
