MODEL 1
REMARK VINA RESULT:    -8.009      0.000      0.000
REMARK INTER + INTRA:         -10.292
REMARK INTER:                  -9.882
REMARK INTRA:                  -0.410
REMARK UNBOUND:                -0.410
REMARK  Name = 7d.sdf
REMARK  5 active torsions:
REMARK  status: ('A' for Active; 'I' for Inactive)
REMARK    1  A    between atoms: C_9  and  C_10
REMARK    2  A    between atoms: C_10  and  C_11
REMARK    3  A    between atoms: C_11  and  O_20
REMARK    4  A    between atoms: C_12  and  C_13
REMARK    5  A    between atoms: O_20  and  C_22
REMARK                            x       y       z     vdW  Elec       q    Type
REMARK                         _______ _______ _______ _____ _____    ______ ____
ROOT
ATOM      1  C   UNL     1       9.008  -1.155  16.084  0.00  0.00    -0.061 A 
ATOM      2  C   UNL     1       8.066  -1.322  17.091  0.00  0.00    -0.060 A 
ATOM      3  C   UNL     1       6.698  -1.230  16.817  0.00  0.00    -0.037 A 
ATOM      4  C   UNL     1       6.293  -0.956  15.497  0.00  0.00    +0.057 A 
ATOM      5  C   UNL     1       7.229  -0.795  14.465  0.00  0.00    +0.004 A 
ATOM      6  C   UNL     1       8.603  -0.895  14.772  0.00  0.00    -0.052 A 
ATOM      7  N   UNL     1       5.021  -0.872  14.932  0.00  0.00    -0.283 N 
ATOM      8  C   UNL     1       5.175  -0.540  13.598  0.00  0.00    +0.018 A 
ATOM      9  C   UNL     1       6.510  -0.561  13.255  0.00  0.00    -0.011 A 
ATOM     10  C   UNL     1       3.773  -1.098  15.564  0.00  0.00    +0.263 C 
ATOM     11  O   UNL     1       3.695  -0.964  16.782  0.00  0.00    -0.267 OA
ENDROOT
BRANCH  10  12
ATOM     12  C   UNL     1       2.558  -1.489  14.801  0.00  0.00    +0.040 A 
ATOM     13  C   UNL     1       2.112  -2.818  14.834  0.00  0.00    -0.049 A 
ATOM     14  C   UNL     1       1.012  -3.206  14.069  0.00  0.00    -0.061 A 
ATOM     15  C   UNL     1       0.340  -2.263  13.294  0.00  0.00    -0.062 A 
ATOM     16  C   UNL     1       0.753  -0.928  13.299  0.00  0.00    -0.061 A 
ATOM     17  C   UNL     1       1.861  -0.532  14.059  0.00  0.00    -0.049 A 
ENDBRANCH  10  12
BRANCH   9  18
ATOM     18  C   UNL     1       7.058  -0.359  11.876  0.00  0.00    +0.072 C 
BRANCH  18  19
ATOM     19  C   UNL     1       7.051   1.100  11.444  0.00  0.00    +0.311 C 
ATOM     20  O   UNL     1       7.772   1.991  11.872  0.00  0.00    -0.250 OA
BRANCH  19  21
ATOM     21  O   UNL     1       6.109   1.275  10.468  0.00  0.00    -0.468 OA
ATOM     22  C   UNL     1       6.646   1.266   9.144  0.00  0.00    +0.082 C 
ENDBRANCH  19  21
ENDBRANCH  18  19
ENDBRANCH   9  18
TORSDOF 4
ENDMDL
MODEL 2
REMARK VINA RESULT:    -7.794      2.021      4.788
REMARK INTER + INTRA:         -10.027
REMARK INTER:                  -9.487
REMARK INTRA:                  -0.540
REMARK UNBOUND:                -0.410
REMARK  Name = 7d.sdf
REMARK  5 active torsions:
REMARK  status: ('A' for Active; 'I' for Inactive)
REMARK    1  A    between atoms: C_9  and  C_10
REMARK    2  A    between atoms: C_10  and  C_11
REMARK    3  A    between atoms: C_11  and  O_20
REMARK    4  A    between atoms: C_12  and  C_13
REMARK    5  A    between atoms: O_20  and  C_22
REMARK                            x       y       z     vdW  Elec       q    Type
REMARK                         _______ _______ _______ _____ _____    ______ ____
ROOT
ATOM      1  C   UNL     1       9.330  -0.661  14.896  0.00  0.00    -0.061 A 
ATOM      2  C   UNL     1       8.972  -0.042  13.705  0.00  0.00    -0.060 A 
ATOM      3  C   UNL     1       7.647  -0.059  13.258  0.00  0.00    -0.037 A 
ATOM      4  C   UNL     1       6.681  -0.722  14.038  0.00  0.00    +0.057 A 
ATOM      5  C   UNL     1       7.022  -1.342  15.249  0.00  0.00    +0.004 A 
ATOM      6  C   UNL     1       8.367  -1.309  15.675  0.00  0.00    -0.052 A 
ATOM      7  N   UNL     1       5.301  -0.843  13.874  0.00  0.00    -0.283 N 
ATOM      8  C   UNL     1       4.824  -1.633  14.904  0.00  0.00    +0.018 A 
ATOM      9  C   UNL     1       5.830  -1.894  15.808  0.00  0.00    -0.011 A 
ATOM     10  C   UNL     1       4.492  -0.263  12.865  0.00  0.00    +0.263 C 
ATOM     11  O   UNL     1       5.012   0.044  11.796  0.00  0.00    -0.267 OA
ENDROOT
BRANCH  10  12
ATOM     12  C   UNL     1       3.039  -0.017  13.060  0.00  0.00    +0.040 A 
ATOM     13  C   UNL     1       2.611   0.912  14.019  0.00  0.00    -0.049 A 
ATOM     14  C   UNL     1       1.250   1.100  14.252  0.00  0.00    -0.061 A 
ATOM     15  C   UNL     1       0.314   0.383  13.509  0.00  0.00    -0.062 A 
ATOM     16  C   UNL     1       0.738  -0.506  12.518  0.00  0.00    -0.061 A 
ATOM     17  C   UNL     1       2.104  -0.705  12.282  0.00  0.00    -0.049 A 
ENDBRANCH  10  12
BRANCH   9  18
ATOM     18  C   UNL     1       5.669  -2.626  17.105  0.00  0.00    +0.072 C 
BRANCH  18  19
ATOM     19  C   UNL     1       5.470  -1.693  18.290  0.00  0.00    +0.311 C 
ATOM     20  O   UNL     1       5.156  -0.511  18.243  0.00  0.00    -0.250 OA
BRANCH  19  21
ATOM     21  O   UNL     1       5.679  -2.388  19.449  0.00  0.00    -0.468 OA
ATOM     22  C   UNL     1       5.422  -3.789  19.332  0.00  0.00    +0.082 C 
ENDBRANCH  19  21
ENDBRANCH  18  19
ENDBRANCH   9  18
TORSDOF 4
ENDMDL
MODEL 3
REMARK VINA RESULT:    -7.668      2.039      4.497
REMARK INTER + INTRA:          -9.871
REMARK INTER:                  -9.181
REMARK INTRA:                  -0.690
REMARK UNBOUND:                -0.410
REMARK  Name = 7d.sdf
REMARK  5 active torsions:
REMARK  status: ('A' for Active; 'I' for Inactive)
REMARK    1  A    between atoms: C_9  and  C_10
REMARK    2  A    between atoms: C_10  and  C_11
REMARK    3  A    between atoms: C_11  and  O_20
REMARK    4  A    between atoms: C_12  and  C_13
REMARK    5  A    between atoms: O_20  and  C_22
REMARK                            x       y       z     vdW  Elec       q    Type
REMARK                         _______ _______ _______ _____ _____    ______ ____
ROOT
ATOM      1  C   UNL     1       7.808   0.068  12.917  0.00  0.00    -0.061 A 
ATOM      2  C   UNL     1       6.861   0.515  12.005  0.00  0.00    -0.060 A 
ATOM      3  C   UNL     1       5.503   0.237  12.186  0.00  0.00    -0.037 A 
ATOM      4  C   UNL     1       5.113  -0.514  13.311  0.00  0.00    +0.057 A 
ATOM      5  C   UNL     1       6.054  -0.965  14.249  0.00  0.00    +0.004 A 
ATOM      6  C   UNL     1       7.418  -0.667  14.040  0.00  0.00    -0.052 A 
ATOM      7  N   UNL     1       3.849  -0.881  13.770  0.00  0.00    -0.283 N 
ATOM      8  C   UNL     1       4.022  -1.652  14.905  0.00  0.00    +0.018 A 
ATOM      9  C   UNL     1       5.349  -1.662  15.275  0.00  0.00    -0.011 A 
ATOM     10  C   UNL     1       2.590  -0.533  13.220  0.00  0.00    +0.263 C 
ATOM     11  O   UNL     1       2.528  -0.232  12.031  0.00  0.00    -0.267 OA
ENDROOT
BRANCH  10  12
ATOM     12  C   UNL     1       1.346  -0.522  14.033  0.00  0.00    +0.040 A 
ATOM     13  C   UNL     1       1.082   0.555  14.891  0.00  0.00    -0.049 A 
ATOM     14  C   UNL     1      -0.049   0.541  15.704  0.00  0.00    -0.061 A 
ATOM     15  C   UNL     1      -0.934  -0.533  15.642  0.00  0.00    -0.062 A 
ATOM     16  C   UNL     1      -0.700  -1.585  14.752  0.00  0.00    -0.061 A 
ATOM     17  C   UNL     1       0.439  -1.581  13.936  0.00  0.00    -0.049 A 
ENDBRANCH  10  12
BRANCH   9  18
ATOM     18  C   UNL     1       5.905  -2.301  16.511  0.00  0.00    +0.072 C 
BRANCH  18  19
ATOM     19  C   UNL     1       6.153  -1.303  17.632  0.00  0.00    +0.311 C 
ATOM     20  O   UNL     1       5.330  -0.892  18.439  0.00  0.00    -0.250 OA
BRANCH  19  21
ATOM     21  O   UNL     1       7.469  -0.932  17.620  0.00  0.00    -0.468 OA
ATOM     22  C   UNL     1       8.373  -2.030  17.475  0.00  0.00    +0.082 C 
ENDBRANCH  19  21
ENDBRANCH  18  19
ENDBRANCH   9  18
TORSDOF 4
ENDMDL
