MODEL 1
REMARK VINA RESULT:    -8.594      0.000      0.000
REMARK INTER + INTRA:         -10.434
REMARK INTER:                 -10.101
REMARK INTRA:                  -0.332
REMARK UNBOUND:                -0.332
REMARK  Name = 8.sdf
REMARK  3 active torsions:
REMARK  status: ('A' for Active; 'I' for Inactive)
REMARK    1  A    between atoms: C_9  and  C_10
REMARK    2  A    between atoms: N_11  and  N_12
REMARK    3  A    between atoms: C_13  and  C_15
REMARK                            x       y       z     vdW  Elec       q    Type
REMARK                         _______ _______ _______ _____ _____    ______ ____
ROOT
ATOM      1  C   UNL     1       6.770  -1.087  10.587  0.00  0.00    +0.055 C 
ATOM      2  N   UNL     1       7.187  -0.491  11.655  0.00  0.00    -0.187 NA
ENDROOT
BRANCH   1  11
ATOM      3  C   UNL     1       5.936   2.840   8.135  0.00  0.00    -0.061 A 
ATOM      4  C   UNL     1       6.626   2.852   6.925  0.00  0.00    -0.060 A 
ATOM      5  C   UNL     1       7.437   1.777   6.552  0.00  0.00    -0.038 A 
ATOM      6  C   UNL     1       7.536   0.700   7.440  0.00  0.00    +0.047 A 
ATOM      7  C   UNL     1       6.863   0.656   8.663  0.00  0.00    +0.008 A 
ATOM      8  C   UNL     1       6.043   1.751   9.011  0.00  0.00    -0.052 A 
ATOM      9  N   UNL     1       8.257  -0.467   7.330  0.00  0.00    -0.360 N 
ATOM     10  C   UNL     1       8.070  -1.239   8.439  0.00  0.00    +0.011 A 
ATOM     11  C   UNL     1       7.207  -0.582   9.299  0.00  0.00    +0.020 A 
ATOM     12  H   UNL     1       8.824  -0.709   6.562  0.00  0.00    +0.000 HD
ENDBRANCH   1  11
BRANCH   2  13
ATOM     13  N   UNL     1       6.764  -0.970  12.862  0.00  0.00    -0.203 N 
ATOM     14  C   UNL     1       7.605  -0.819  13.958  0.00  0.00    +0.263 C 
ATOM     15  O   UNL     1       8.704  -0.270  13.927  0.00  0.00    -0.268 OA
ATOM     16  H   UNL     1       5.888  -1.409  12.953  0.00  0.00    +0.000 HD
BRANCH  14  17
ATOM     17  C   UNL     1       7.114  -1.346  15.263  0.00  0.00    +0.038 A 
ATOM     18  C   UNL     1       5.804  -1.804  15.448  0.00  0.00    -0.049 A 
ATOM     19  C   UNL     1       5.418  -2.336  16.685  0.00  0.00    -0.047 A 
ATOM     20  C   UNL     1       6.338  -2.412  17.731  0.00  0.00    +0.018 A 
ATOM     21  C   UNL     1       7.646  -1.965  17.556  0.00  0.00    -0.047 A 
ATOM     22  C   UNL     1       8.033  -1.437  16.321  0.00  0.00    -0.049 A 
ATOM     23 BR   UNL     1       5.815  -3.149  19.390  0.00  0.00    -0.050 Br
ENDBRANCH  14  17
ENDBRANCH   2  13
TORSDOF 3
ENDMDL
MODEL 2
REMARK VINA RESULT:    -8.522      4.088      8.812
REMARK INTER + INTRA:         -10.349
REMARK INTER:                 -10.055
REMARK INTRA:                  -0.294
REMARK UNBOUND:                -0.332
REMARK  Name = 8.sdf
REMARK  3 active torsions:
REMARK  status: ('A' for Active; 'I' for Inactive)
REMARK    1  A    between atoms: C_9  and  C_10
REMARK    2  A    between atoms: N_11  and  N_12
REMARK    3  A    between atoms: C_13  and  C_15
REMARK                            x       y       z     vdW  Elec       q    Type
REMARK                         _______ _______ _______ _____ _____    ______ ____
ROOT
ATOM      1  C   UNL     1       6.531   0.471  12.876  0.00  0.00    +0.055 C 
ATOM      2  N   UNL     1       5.732   0.547  11.863  0.00  0.00    -0.187 NA
ENDROOT
BRANCH   1  11
ATOM      3  C   UNL     1       8.849  -1.179  16.623  0.00  0.00    -0.061 A 
ATOM      4  C   UNL     1       8.072  -2.066  17.363  0.00  0.00    -0.060 A 
ATOM      5  C   UNL     1       6.773  -2.387  16.963  0.00  0.00    -0.038 A 
ATOM      6  C   UNL     1       6.281  -1.778  15.802  0.00  0.00    +0.047 A 
ATOM      7  C   UNL     1       7.030  -0.880  15.037  0.00  0.00    +0.008 A 
ATOM      8  C   UNL     1       8.343  -0.581  15.460  0.00  0.00    -0.052 A 
ATOM      9  N   UNL     1       5.054  -1.907  15.194  0.00  0.00    -0.360 N 
ATOM     10  C   UNL     1       4.998  -1.119  14.081  0.00  0.00    +0.011 A 
ATOM     11  C   UNL     1       6.208  -0.460  13.941  0.00  0.00    +0.020 A 
ATOM     12  H   UNL     1       4.324  -2.485  15.514  0.00  0.00    +0.000 HD
ENDBRANCH   1  11
BRANCH   2  13
ATOM     13  N   UNL     1       6.041   1.431  10.869  0.00  0.00    -0.203 N 
ATOM     14  C   UNL     1       6.632   0.936   9.712  0.00  0.00    +0.263 C 
ATOM     15  O   UNL     1       6.886  -0.248   9.507  0.00  0.00    -0.268 OA
ATOM     16  H   UNL     1       5.850   2.392  10.970  0.00  0.00    +0.000 HD
BRANCH  14  17
ATOM     17  C   UNL     1       6.952   1.925   8.644  0.00  0.00    +0.038 A 
ATOM     18  C   UNL     1       6.126   2.132   7.533  0.00  0.00    -0.049 A 
ATOM     19  C   UNL     1       6.457   3.112   6.588  0.00  0.00    -0.047 A 
ATOM     20  C   UNL     1       7.606   3.884   6.756  0.00  0.00    +0.018 A 
ATOM     21  C   UNL     1       8.433   3.691   7.861  0.00  0.00    -0.047 A 
ATOM     22  C   UNL     1       8.101   2.715   8.805  0.00  0.00    -0.049 A 
ATOM     23 BR   UNL     1       8.035   5.218   5.489  0.00  0.00    -0.050 Br
ENDBRANCH  14  17
ENDBRANCH   2  13
TORSDOF 3
ENDMDL
MODEL 3
REMARK VINA RESULT:    -7.942      1.875      2.521
REMARK INTER + INTRA:          -9.668
REMARK INTER:                  -9.362
REMARK INTRA:                  -0.305
REMARK UNBOUND:                -0.332
REMARK  Name = 8.sdf
REMARK  3 active torsions:
REMARK  status: ('A' for Active; 'I' for Inactive)
REMARK    1  A    between atoms: C_9  and  C_10
REMARK    2  A    between atoms: N_11  and  N_12
REMARK    3  A    between atoms: C_13  and  C_15
REMARK                            x       y       z     vdW  Elec       q    Type
REMARK                         _______ _______ _______ _____ _____    ______ ____
ROOT
ATOM      1  C   UNL     1       7.458   1.036  10.027  0.00  0.00    +0.055 C 
ATOM      2  N   UNL     1       6.710   0.098  10.507  0.00  0.00    -0.187 NA
ENDROOT
BRANCH   1  11
ATOM      3  C   UNL     1       8.810   4.804   7.555  0.00  0.00    -0.061 A 
ATOM      4  C   UNL     1       8.249   4.816   6.281  0.00  0.00    -0.060 A 
ATOM      5  C   UNL     1       7.386   3.799   5.868  0.00  0.00    -0.038 A 
ATOM      6  C   UNL     1       7.115   2.769   6.776  0.00  0.00    +0.047 A 
ATOM      7  C   UNL     1       7.662   2.722   8.061  0.00  0.00    +0.008 A 
ATOM      8  C   UNL     1       8.525   3.768   8.454  0.00  0.00    -0.052 A 
ATOM      9  N   UNL     1       6.317   1.657   6.633  0.00  0.00    -0.360 N 
ATOM     10  C   UNL     1       6.348   0.908   7.773  0.00  0.00    +0.011 A 
ATOM     11  C   UNL     1       7.172   1.533   8.694  0.00  0.00    +0.020 A 
ATOM     12  H   UNL     1       5.799   1.435   5.826  0.00  0.00    +0.000 HD
ENDBRANCH   1  11
BRANCH   2  13
ATOM     13  N   UNL     1       6.993  -0.367  11.760  0.00  0.00    -0.203 N 
ATOM     14  C   UNL     1       5.942  -0.505  12.659  0.00  0.00    +0.263 C 
ATOM     15  O   UNL     1       4.766  -0.252  12.407  0.00  0.00    -0.268 OA
ATOM     16  H   UNL     1       7.914  -0.597  12.018  0.00  0.00    +0.000 HD
BRANCH  14  17
ATOM     17  C   UNL     1       6.280  -1.020  14.017  0.00  0.00    +0.038 A 
ATOM     18  C   UNL     1       7.576  -0.970  14.543  0.00  0.00    -0.049 A 
ATOM     19  C   UNL     1       7.820  -1.424  15.846  0.00  0.00    -0.047 A 
ATOM     20  C   UNL     1       6.771  -1.921  16.620  0.00  0.00    +0.018 A 
ATOM     21  C   UNL     1       5.476  -1.970  16.108  0.00  0.00    -0.047 A 
ATOM     22  C   UNL     1       5.232  -1.514  14.810  0.00  0.00    -0.049 A 
ATOM     23 BR   UNL     1       7.104  -2.513  18.383  0.00  0.00    -0.050 Br
ENDBRANCH  14  17
ENDBRANCH   2  13
TORSDOF 3
ENDMDL
