MODEL 1
REMARK VINA RESULT:    -9.666      0.000      0.000
REMARK INTER + INTRA:         -12.525
REMARK INTER:                 -11.926
REMARK INTRA:                  -0.599
REMARK UNBOUND:                -0.599
REMARK  Name = 8d.sdf
REMARK  4 active torsions:
REMARK  status: ('A' for Active; 'I' for Inactive)
REMARK    1  A    between atoms: C_9  and  C_10
REMARK    2  A    between atoms: N_11  and  N_19
REMARK    3  A    between atoms: C_12  and  C_13
REMARK    4  A    between atoms: C_20  and  C_22
REMARK                            x       y       z     vdW  Elec       q    Type
REMARK                         _______ _______ _______ _____ _____    ______ ____
ROOT
ATOM      1  C   UNL     1       7.588  -1.621  16.130  0.00  0.00    -0.061 A 
ATOM      2  C   UNL     1       6.697  -2.389  16.866  0.00  0.00    -0.060 A 
ATOM      3  C   UNL     1       5.327  -2.354  16.593  0.00  0.00    -0.037 A 
ATOM      4  C   UNL     1       4.866  -1.514  15.561  0.00  0.00    +0.057 A 
ATOM      5  C   UNL     1       5.752  -0.747  14.791  0.00  0.00    +0.009 A 
ATOM      6  C   UNL     1       7.132  -0.802  15.089  0.00  0.00    -0.052 A 
ATOM      7  N   UNL     1       3.580  -1.300  15.069  0.00  0.00    -0.282 N 
ATOM      8  C   UNL     1       3.669  -0.387  14.035  0.00  0.00    +0.023 A 
ATOM      9  C   UNL     1       4.985  -0.037  13.817  0.00  0.00    +0.020 A 
ATOM     10  C   UNL     1       2.375  -1.891  15.523  0.00  0.00    +0.263 C 
ATOM     11  O   UNL     1       2.304  -2.217  16.711  0.00  0.00    -0.267 OA
ENDROOT
BRANCH  10  12
ATOM     12  C   UNL     1       1.199  -2.097  14.641  0.00  0.00    +0.040 A 
ATOM     13  C   UNL     1       0.189  -1.127  14.569  0.00  0.00    -0.049 A 
ATOM     14  C   UNL     1      -0.977  -1.388  13.852  0.00  0.00    -0.061 A 
ATOM     15  C   UNL     1      -1.115  -2.594  13.168  0.00  0.00    -0.062 A 
ATOM     16  C   UNL     1      -0.073  -3.524  13.166  0.00  0.00    -0.061 A 
ATOM     17  C   UNL     1       1.090  -3.275  13.895  0.00  0.00    -0.049 A 
ENDBRANCH  10  12
BRANCH   9  18
ATOM     18  C   UNL     1       5.440   0.889  12.797  0.00  0.00    +0.055 C 
ATOM     19  N   UNL     1       5.571   0.466  11.581  0.00  0.00    -0.187 NA
BRANCH  19  20
ATOM     20  N   UNL     1       5.997   1.374  10.650  0.00  0.00    -0.203 N 
ATOM     21  C   UNL     1       6.727   0.933   9.551  0.00  0.00    +0.263 C 
ATOM     22  O   UNL     1       7.033  -0.237   9.328  0.00  0.00    -0.268 OA
ATOM     23  H   UNL     1       5.789   2.330  10.756  0.00  0.00    +0.000 HD
BRANCH  21  24
ATOM     24  C   UNL     1       7.124   1.980   8.567  0.00  0.00    +0.038 A 
ATOM     25  C   UNL     1       8.193   2.858   8.798  0.00  0.00    -0.049 A 
ATOM     26  C   UNL     1       8.505   3.848   7.859  0.00  0.00    -0.047 A 
ATOM     27  C   UNL     1       7.760   3.953   6.686  0.00  0.00    +0.018 A 
ATOM     28  C   UNL     1       6.723   3.060   6.423  0.00  0.00    -0.047 A 
ATOM     29  C   UNL     1       6.410   2.072   7.361  0.00  0.00    -0.049 A 
ATOM     30 BR   UNL     1       8.158   5.321   5.444  0.00  0.00    -0.050 Br
ENDBRANCH  21  24
ENDBRANCH  19  20
ENDBRANCH   9  18
TORSDOF 4
ENDMDL
MODEL 2
REMARK VINA RESULT:    -9.482      1.048      4.535
REMARK INTER + INTRA:         -12.298
REMARK INTER:                 -12.309
REMARK INTRA:                   0.011
REMARK UNBOUND:                -0.599
REMARK  Name = 8d.sdf
REMARK  4 active torsions:
REMARK  status: ('A' for Active; 'I' for Inactive)
REMARK    1  A    between atoms: C_9  and  C_10
REMARK    2  A    between atoms: N_11  and  N_19
REMARK    3  A    between atoms: C_12  and  C_13
REMARK    4  A    between atoms: C_20  and  C_22
REMARK                            x       y       z     vdW  Elec       q    Type
REMARK                         _______ _______ _______ _____ _____    ______ ____
ROOT
ATOM      1  C   UNL     1       0.413  -0.739  13.444  0.00  0.00    -0.061 A 
ATOM      2  C   UNL     1       0.455  -1.683  14.461  0.00  0.00    -0.060 A 
ATOM      3  C   UNL     1       1.674  -2.091  15.009  0.00  0.00    -0.037 A 
ATOM      4  C   UNL     1       2.862  -1.533  14.500  0.00  0.00    +0.057 A 
ATOM      5  C   UNL     1       2.841  -0.563  13.487  0.00  0.00    +0.009 A 
ATOM      6  C   UNL     1       1.594  -0.169  12.952  0.00  0.00    -0.052 A 
ATOM      7  N   UNL     1       4.192  -1.739  14.863  0.00  0.00    -0.282 N 
ATOM      8  C   UNL     1       4.979  -0.934  14.062  0.00  0.00    +0.023 A 
ATOM      9  C   UNL     1       4.191  -0.181  13.218  0.00  0.00    +0.020 A 
ATOM     10  C   UNL     1       4.685  -2.610  15.866  0.00  0.00    +0.263 C 
ATOM     11  O   UNL     1       4.035  -3.629  16.117  0.00  0.00    -0.267 OA
ENDROOT
BRANCH  10  12
ATOM     12  C   UNL     1       5.956  -2.361  16.592  0.00  0.00    +0.040 A 
ATOM     13  C   UNL     1       7.061  -1.819  15.921  0.00  0.00    -0.049 A 
ATOM     14  C   UNL     1       8.290  -1.720  16.569  0.00  0.00    -0.061 A 
ATOM     15  C   UNL     1       8.405  -2.116  17.899  0.00  0.00    -0.062 A 
ATOM     16  C   UNL     1       7.286  -2.574  18.597  0.00  0.00    -0.061 A 
ATOM     17  C   UNL     1       6.056  -2.689  17.948  0.00  0.00    -0.049 A 
ENDBRANCH  10  12
BRANCH   9  18
ATOM     18  C   UNL     1       4.690   0.782  12.253  0.00  0.00    +0.055 C 
ATOM     19  N   UNL     1       5.639   0.426  11.449  0.00  0.00    -0.187 NA
BRANCH  19  20
ATOM     20  N   UNL     1       6.076   1.364  10.552  0.00  0.00    -0.203 N 
ATOM     21  C   UNL     1       6.770   0.952   9.418  0.00  0.00    +0.263 C 
ATOM     22  O   UNL     1       7.034  -0.214   9.136  0.00  0.00    -0.268 OA
ATOM     23  H   UNL     1       5.901   2.320  10.706  0.00  0.00    +0.000 HD
BRANCH  21  24
ATOM     24  C   UNL     1       7.181   2.032   8.476  0.00  0.00    +0.038 A 
ATOM     25  C   UNL     1       8.271   2.876   8.733  0.00  0.00    -0.049 A 
ATOM     26  C   UNL     1       8.596   3.898   7.835  0.00  0.00    -0.047 A 
ATOM     27  C   UNL     1       7.843   4.069   6.675  0.00  0.00    +0.018 A 
ATOM     28  C   UNL     1       6.785   3.210   6.384  0.00  0.00    -0.047 A 
ATOM     29  C   UNL     1       6.459   2.190   7.283  0.00  0.00    -0.049 A 
ATOM     30 BR   UNL     1       8.260   5.480   5.487  0.00  0.00    -0.050 Br
ENDBRANCH  21  24
ENDBRANCH  19  20
ENDBRANCH   9  18
TORSDOF 4
ENDMDL
MODEL 3
REMARK VINA RESULT:    -7.854      4.074      8.953
REMARK INTER + INTRA:         -10.289
REMARK INTER:                  -9.941
REMARK INTRA:                  -0.348
REMARK UNBOUND:                -0.599
REMARK  Name = 8d.sdf
REMARK  4 active torsions:
REMARK  status: ('A' for Active; 'I' for Inactive)
REMARK    1  A    between atoms: C_9  and  C_10
REMARK    2  A    between atoms: N_11  and  N_19
REMARK    3  A    between atoms: C_12  and  C_13
REMARK    4  A    between atoms: C_20  and  C_22
REMARK                            x       y       z     vdW  Elec       q    Type
REMARK                         _______ _______ _______ _____ _____    ______ ____
ROOT
ATOM      1  C   UNL     1       7.273  -0.995  16.325  0.00  0.00    -0.061 A 
ATOM      2  C   UNL     1       8.370  -1.072  15.477  0.00  0.00    -0.060 A 
ATOM      3  C   UNL     1       8.212  -0.972  14.092  0.00  0.00    -0.037 A 
ATOM      4  C   UNL     1       6.915  -0.803  13.572  0.00  0.00    +0.057 A 
ATOM      5  C   UNL     1       5.796  -0.702  14.411  0.00  0.00    +0.009 A 
ATOM      6  C   UNL     1       5.985  -0.806  15.808  0.00  0.00    -0.052 A 
ATOM      7  N   UNL     1       6.474  -0.658  12.258  0.00  0.00    -0.282 N 
ATOM      8  C   UNL     1       5.101  -0.506  12.286  0.00  0.00    +0.023 A 
ATOM      9  C   UNL     1       4.646  -0.506  13.588  0.00  0.00    +0.020 A 
ATOM     10  C   UNL     1       7.262  -0.663  11.080  0.00  0.00    +0.263 C 
ATOM     11  O   UNL     1       8.305  -1.323  11.086  0.00  0.00    -0.267 OA
ENDROOT
BRANCH  10  12
ATOM     12  C   UNL     1       6.866   0.059   9.845  0.00  0.00    +0.040 A 
ATOM     13  C   UNL     1       7.042  -0.538   8.588  0.00  0.00    -0.049 A 
ATOM     14  C   UNL     1       6.802   0.197   7.429  0.00  0.00    -0.061 A 
ATOM     15  C   UNL     1       6.341   1.508   7.523  0.00  0.00    -0.062 A 
ATOM     16  C   UNL     1       6.081   2.075   8.772  0.00  0.00    -0.061 A 
ATOM     17  C   UNL     1       6.334   1.349   9.936  0.00  0.00    -0.049 A 
ENDBRANCH  10  12
BRANCH   9  18
ATOM     18  C   UNL     1       3.258  -0.352  13.982  0.00  0.00    +0.055 C 
ATOM     19  N   UNL     1       2.963   0.496  14.914  0.00  0.00    -0.187 NA
BRANCH  19  20
ATOM     20  N   UNL     1       1.641   0.613  15.251  0.00  0.00    -0.203 N 
ATOM     21  C   UNL     1       1.231   0.267  16.535  0.00  0.00    +0.263 C 
ATOM     22  O   UNL     1       1.970  -0.145  17.426  0.00  0.00    -0.268 OA
ATOM     23  H   UNL     1       0.987   0.940  14.592  0.00  0.00    +0.000 HD
BRANCH  21  24
ATOM     24  C   UNL     1      -0.218   0.456  16.831  0.00  0.00    +0.038 A 
ATOM     25  C   UNL     1      -0.717   0.485  18.141  0.00  0.00    -0.049 A 
ATOM     26  C   UNL     1      -2.091   0.629  18.367  0.00  0.00    -0.047 A 
ATOM     27  C   UNL     1      -2.963   0.757  17.287  0.00  0.00    +0.018 A 
ATOM     28  C   UNL     1      -2.476   0.775  15.982  0.00  0.00    -0.047 A 
ATOM     29  C   UNL     1      -1.104   0.629  15.756  0.00  0.00    -0.049 A 
ATOM     30 BR   UNL     1      -4.822   0.907  17.598  0.00  0.00    -0.050 Br
ENDBRANCH  21  24
ENDBRANCH  19  20
ENDBRANCH   9  18
TORSDOF 4
ENDMDL
