MODEL 1
REMARK VINA RESULT:    -9.096      0.000      0.000
REMARK INTER + INTRA:         -11.129
REMARK INTER:                 -10.691
REMARK INTRA:                  -0.437
REMARK UNBOUND:                -0.437
REMARK  Name = 9.sdf
REMARK  3 active torsions:
REMARK  status: ('A' for Active; 'I' for Inactive)
REMARK    1  A    between atoms: C_9  and  C_10
REMARK    2  A    between atoms: C_11  and  C_12
REMARK    3  A    between atoms: C_12  and  C_13
REMARK                            x       y       z     vdW  Elec       q    Type
REMARK                         _______ _______ _______ _____ _____    ______ ____
ROOT
ATOM      1  C   UNL     1       6.003  -2.933  18.338  0.00  0.00    -0.061 A 
ATOM      2  C   UNL     1       7.175  -2.927  19.086  0.00  0.00    -0.060 A 
ATOM      3  C   UNL     1       8.355  -2.389  18.566  0.00  0.00    -0.038 A 
ATOM      4  C   UNL     1       8.313  -1.848  17.274  0.00  0.00    +0.047 A 
ATOM      5  C   UNL     1       7.152  -1.818  16.498  0.00  0.00    +0.007 A 
ATOM      6  C   UNL     1       5.980  -2.390  17.047  0.00  0.00    -0.052 A 
ATOM      7  N   UNL     1       9.317  -1.276  16.526  0.00  0.00    -0.360 N 
ATOM      8  C   UNL     1       8.837  -0.890  15.302  0.00  0.00    +0.010 A 
ATOM      9  C   UNL     1       7.492  -1.182  15.260  0.00  0.00    +0.000 A 
ATOM     10  H   UNL     1      10.247  -1.162  16.827  0.00  0.00    +0.000 HD
ENDROOT
BRANCH   9  11
ATOM     11  C   UNL     1       6.670  -0.882  14.127  0.00  0.00    -0.049 C 
ATOM     12  C   UNL     1       7.081  -0.189  13.055  0.00  0.00    -0.014 C 
BRANCH  12  13
ATOM     13  C   UNL     1       6.167   0.127  11.928  0.00  0.00    +0.186 C 
ATOM     14  O   UNL     1       5.034   0.558  12.100  0.00  0.00    -0.287 OA
BRANCH  13  15
ATOM     15  C   UNL     1       6.692  -0.146  10.562  0.00  0.00    +0.022 A 
ATOM     16  C   UNL     1       7.216  -1.410  10.270  0.00  0.00    -0.051 A 
ATOM     17  C   UNL     1       7.733  -1.672   8.998  0.00  0.00    -0.061 A 
ATOM     18  C   UNL     1       7.714  -0.682   8.015  0.00  0.00    -0.062 A 
ATOM     19  C   UNL     1       7.167   0.569   8.293  0.00  0.00    -0.061 A 
ATOM     20  C   UNL     1       6.651   0.836   9.562  0.00  0.00    -0.051 A 
ENDBRANCH  13  15
ENDBRANCH  12  13
ENDBRANCH   9  11
TORSDOF 3
ENDMDL
MODEL 2
REMARK VINA RESULT:    -8.961      2.141      7.327
REMARK INTER + INTRA:         -10.970
REMARK INTER:                 -10.543
REMARK INTRA:                  -0.427
REMARK UNBOUND:                -0.437
REMARK  Name = 9.sdf
REMARK  3 active torsions:
REMARK  status: ('A' for Active; 'I' for Inactive)
REMARK    1  A    between atoms: C_9  and  C_10
REMARK    2  A    between atoms: C_11  and  C_12
REMARK    3  A    between atoms: C_12  and  C_13
REMARK                            x       y       z     vdW  Elec       q    Type
REMARK                         _______ _______ _______ _____ _____    ______ ____
ROOT
ATOM      1  C   UNL     1       7.821  -1.660   8.772  0.00  0.00    -0.061 A 
ATOM      2  C   UNL     1       7.796  -0.518   7.980  0.00  0.00    -0.060 A 
ATOM      3  C   UNL     1       7.239   0.672   8.455  0.00  0.00    -0.038 A 
ATOM      4  C   UNL     1       6.718   0.677   9.755  0.00  0.00    +0.047 A 
ATOM      5  C   UNL     1       6.741  -0.445  10.589  0.00  0.00    +0.007 A 
ATOM      6  C   UNL     1       7.294  -1.639  10.069  0.00  0.00    -0.052 A 
ATOM      7  N   UNL     1       6.107   1.691  10.456  0.00  0.00    -0.360 N 
ATOM      8  C   UNL     1       5.737   1.255  11.701  0.00  0.00    +0.010 A 
ATOM      9  C   UNL     1       6.140  -0.056  11.831  0.00  0.00    +0.000 A 
ATOM     10  H   UNL     1       5.958   2.601  10.112  0.00  0.00    +0.000 HD
ENDROOT
BRANCH   9  11
ATOM     11  C   UNL     1       5.933  -0.814  13.027  0.00  0.00    -0.049 C 
ATOM     12  C   UNL     1       5.901  -0.290  14.260  0.00  0.00    -0.014 C 
BRANCH  12  13
ATOM     13  C   UNL     1       5.725  -1.137  15.468  0.00  0.00    +0.186 C 
ATOM     14  O   UNL     1       4.624  -1.494  15.867  0.00  0.00    -0.287 OA
BRANCH  13  15
ATOM     15  C   UNL     1       6.969  -1.500  16.201  0.00  0.00    +0.022 A 
ATOM     16  C   UNL     1       8.210  -1.288  15.592  0.00  0.00    -0.051 A 
ATOM     17  C   UNL     1       9.384  -1.646  16.260  0.00  0.00    -0.061 A 
ATOM     18  C   UNL     1       9.322  -2.202  17.538  0.00  0.00    -0.062 A 
ATOM     19  C   UNL     1       8.089  -2.389  18.161  0.00  0.00    -0.061 A 
ATOM     20  C   UNL     1       6.914  -2.033  17.497  0.00  0.00    -0.051 A 
ENDBRANCH  13  15
ENDBRANCH  12  13
ENDBRANCH   9  11
TORSDOF 3
ENDMDL
MODEL 3
REMARK VINA RESULT:    -8.634      2.299      7.593
REMARK INTER + INTRA:         -10.585
REMARK INTER:                 -10.126
REMARK INTRA:                  -0.459
REMARK UNBOUND:                -0.437
REMARK  Name = 9.sdf
REMARK  3 active torsions:
REMARK  status: ('A' for Active; 'I' for Inactive)
REMARK    1  A    between atoms: C_9  and  C_10
REMARK    2  A    between atoms: C_11  and  C_12
REMARK    3  A    between atoms: C_12  and  C_13
REMARK                            x       y       z     vdW  Elec       q    Type
REMARK                         _______ _______ _______ _____ _____    ______ ____
ROOT
ATOM      1  C   UNL     1       7.648  -1.181   8.291  0.00  0.00    -0.061 A 
ATOM      2  C   UNL     1       7.142  -0.038   7.682  0.00  0.00    -0.060 A 
ATOM      3  C   UNL     1       6.582   0.991   8.443  0.00  0.00    -0.038 A 
ATOM      4  C   UNL     1       6.559   0.837   9.836  0.00  0.00    +0.047 A 
ATOM      5  C   UNL     1       7.075  -0.287  10.486  0.00  0.00    +0.007 A 
ATOM      6  C   UNL     1       7.616  -1.320   9.684  0.00  0.00    -0.052 A 
ATOM      7  N   UNL     1       6.062   1.676  10.807  0.00  0.00    -0.360 N 
ATOM      8  C   UNL     1       6.238   1.124  12.048  0.00  0.00    +0.010 A 
ATOM      9  C   UNL     1       6.889  -0.079  11.892  0.00  0.00    +0.000 A 
ATOM     10  H   UNL     1       5.640   2.548  10.634  0.00  0.00    +0.000 HD
ENDROOT
BRANCH   9  11
ATOM     11  C   UNL     1       7.255  -0.910  12.998  0.00  0.00    -0.049 C 
ATOM     12  C   UNL     1       7.033  -0.602  14.283  0.00  0.00    -0.014 C 
BRANCH  12  13
ATOM     13  C   UNL     1       7.476  -1.488  15.390  0.00  0.00    +0.186 C 
ATOM     14  O   UNL     1       8.656  -1.732  15.608  0.00  0.00    -0.287 OA
BRANCH  13  15
ATOM     15  C   UNL     1       6.395  -2.105  16.208  0.00  0.00    +0.022 A 
ATOM     16  C   UNL     1       6.610  -2.325  17.573  0.00  0.00    -0.051 A 
ATOM     17  C   UNL     1       5.613  -2.925  18.347  0.00  0.00    -0.061 A 
ATOM     18  C   UNL     1       4.399  -3.292  17.765  0.00  0.00    -0.062 A 
ATOM     19  C   UNL     1       4.170  -3.049  16.413  0.00  0.00    -0.061 A 
ATOM     20  C   UNL     1       5.163  -2.451  15.636  0.00  0.00    -0.051 A 
ENDBRANCH  13  15
ENDBRANCH  12  13
ENDBRANCH   9  11
TORSDOF 3
ENDMDL
