MODEL 1
REMARK VINA RESULT:    -8.514      0.000      0.000
REMARK INTER + INTRA:         -11.183
REMARK INTER:                 -10.505
REMARK INTRA:                  -0.678
REMARK UNBOUND:                -0.678
REMARK  Name = 17a.sdf
REMARK  4 active torsions:
REMARK  status: ('A' for Active; 'I' for Inactive)
REMARK    1  A    between atoms: N_7  and  C_16
REMARK    2  A    between atoms: C_9  and  C_10
REMARK    3  A    between atoms: N_11  and  N_12
REMARK    4  A    between atoms: C_16  and  C_17
REMARK                            x       y       z     vdW  Elec       q    Type
REMARK                         _______ _______ _______ _____ _____    ______ ____
ROOT
ATOM      1  C   UNL     1     -18.334 -24.635  13.337  0.00  0.00    -0.061 A 
ATOM      2  C   UNL     1     -18.078 -23.495  14.089  0.00  0.00    -0.060 A 
ATOM      3  C   UNL     1     -19.063 -22.520  14.281  0.00  0.00    -0.038 A 
ATOM      4  C   UNL     1     -20.324 -22.718  13.693  0.00  0.00    +0.050 A 
ATOM      5  C   UNL     1     -20.620 -23.888  12.980  0.00  0.00    +0.009 A 
ATOM      6  C   UNL     1     -19.602 -24.849  12.791  0.00  0.00    -0.052 A 
ATOM      7  N   UNL     1     -21.455 -21.921  13.646  0.00  0.00    -0.342 N 
ATOM      8  C   UNL     1     -22.467 -22.594  13.009  0.00  0.00    +0.015 A 
ATOM      9  C   UNL     1     -21.991 -23.821  12.591  0.00  0.00    +0.020 A 
ENDROOT
BRANCH   9  10
ATOM     10  C   UNL     1     -22.761 -24.832  11.896  0.00  0.00    +0.055 C 
ATOM     11  N   UNL     1     -23.752 -25.396  12.503  0.00  0.00    -0.186 NA
BRANCH  11  12
ATOM     12  N   UNL     1     -24.414 -26.347  11.784  0.00  0.00    -0.191 N 
ATOM     13  C   UNL     1     -25.733 -26.201  11.435  0.00  0.00    +0.317 C 
ATOM     14  O   UNL     1     -26.371 -27.058  10.843  0.00  0.00    -0.251 OA
ATOM     15  N   UNL     1     -26.275 -25.012  11.807  0.00  0.00    -0.312 N 
ATOM     16  H   UNL     1     -23.933 -27.160  11.508  0.00  0.00    +0.000 HD
ATOM     17  H   UNL     1     -25.726 -24.349  12.283  0.00  0.00    +0.000 HD
ATOM     18  H   UNL     1     -27.216 -24.815  11.600  0.00  0.00    +0.000 HD
ENDBRANCH  11  12
ENDBRANCH   9  10
BRANCH   7  19
ATOM     19  C   UNL     1     -21.564 -20.526  14.076  0.00  0.00    +0.048 C 
BRANCH  19  20
ATOM     20  C   UNL     1     -22.224 -19.668  13.025  0.00  0.00    -0.028 A 
ATOM     21  C   UNL     1     -21.565 -19.398  11.817  0.00  0.00    -0.056 A 
ATOM     22  C   UNL     1     -22.097 -18.483  10.908  0.00  0.00    -0.047 A 
ATOM     23  C   UNL     1     -23.304 -17.849  11.192  0.00  0.00    +0.018 A 
ATOM     24  C   UNL     1     -24.012 -18.166  12.348  0.00  0.00    -0.047 A 
ATOM     25  C   UNL     1     -23.475 -19.077  13.261  0.00  0.00    -0.056 A 
ATOM     26 BR   UNL     1     -23.957 -16.515  10.024  0.00  0.00    -0.050 Br
ENDBRANCH  19  20
ENDBRANCH   7  19
TORSDOF 4
ENDMDL
