MODEL 1
REMARK VINA RESULT:    -9.315      0.000      0.000
REMARK INTER + INTRA:         -12.801
REMARK INTER:                 -12.582
REMARK INTRA:                  -0.219
REMARK UNBOUND:                -0.219
REMARK  Name = 26a.sdf
REMARK  7 active torsions:
REMARK  status: ('A' for Active; 'I' for Inactive)
REMARK    1  A    between atoms: N_7  and  C_10
REMARK    2  A    between atoms: C_9  and  C_18
REMARK    3  A    between atoms: C_10  and  C_11
REMARK    4  A    between atoms: N_19  and  N_20
REMARK    5  A    between atoms: C_21  and  C_23
REMARK    6  A    between atoms: C_26  and  O_29
REMARK    7  A    between atoms: C_28  and  O_30
REMARK                            x       y       z     vdW  Elec       q    Type
REMARK                         _______ _______ _______ _____ _____    ______ ____
ROOT
ATOM      1  C   UNL     1     -18.005 -21.426  14.395  0.00  0.00    -0.061 A 
ATOM      2  C   UNL     1     -18.136 -22.758  14.768  0.00  0.00    -0.060 A 
ATOM      3  C   UNL     1     -19.277 -23.491  14.432  0.00  0.00    -0.038 A 
ATOM      4  C   UNL     1     -20.290 -22.852  13.697  0.00  0.00    +0.050 A 
ATOM      5  C   UNL     1     -20.159 -21.525  13.268  0.00  0.00    +0.009 A 
ATOM      6  C   UNL     1     -19.003 -20.802  13.639  0.00  0.00    -0.052 A 
ATOM      7  N   UNL     1     -21.530 -23.292  13.271  0.00  0.00    -0.342 N 
ATOM      8  C   UNL     1     -22.135 -22.316  12.522  0.00  0.00    +0.015 A 
ATOM      9  C   UNL     1     -21.318 -21.205  12.494  0.00  0.00    +0.020 A 
ENDROOT
BRANCH   9  10
ATOM     10  C   UNL     1     -21.606 -19.965  11.804  0.00  0.00    +0.055 C 
ATOM     11  N   UNL     1     -22.114 -18.972  12.459  0.00  0.00    -0.187 NA
BRANCH  11  12
ATOM     12  N   UNL     1     -22.358 -17.857  11.716  0.00  0.00    -0.203 N 
ATOM     13  C   UNL     1     -23.619 -17.598  11.213  0.00  0.00    +0.267 C 
ATOM     14  O   UNL     1     -24.609 -18.310  11.390  0.00  0.00    -0.268 OA
ATOM     15  H   UNL     1     -21.625 -17.226  11.533  0.00  0.00    +0.000 HD
BRANCH  13  16
ATOM     16  C   UNL     1     -23.752 -16.349  10.389  0.00  0.00    +0.080 A 
ATOM     17  C   UNL     1     -23.248 -15.157  10.936  0.00  0.00    -0.043 A 
ATOM     18  C   UNL     1     -23.343 -13.948  10.244  0.00  0.00    -0.019 A 
ATOM     19  C   UNL     1     -23.946 -13.929   8.991  0.00  0.00    +0.120 A 
ATOM     20  C   UNL     1     -24.445 -15.093   8.421  0.00  0.00    +0.022 A 
ATOM     21  C   UNL     1     -24.350 -16.302   9.118  0.00  0.00    +0.132 A 
BRANCH  19  22
ATOM     22  O   UNL     1     -24.075 -12.773   8.280  0.00  0.00    -0.507 OA
ATOM     23  H   UNL     1     -23.419 -12.531   7.656  0.00  0.00    +0.000 HD
ENDBRANCH  19  22
BRANCH  21  24
ATOM     24  O   UNL     1     -24.860 -17.434   8.531  0.00  0.00    -0.506 OA
ATOM     25  H   UNL     1     -24.705 -17.600   7.622  0.00  0.00    +0.000 HD
ENDBRANCH  21  24
ENDBRANCH  13  16
ENDBRANCH  11  12
ENDBRANCH   9  10
BRANCH   7  26
ATOM     26  C   UNL     1     -22.181 -24.547  13.640  0.00  0.00    +0.048 C 
BRANCH  26  27
ATOM     27  C   UNL     1     -23.497 -24.724  12.926  0.00  0.00    -0.028 A 
ATOM     28  C   UNL     1     -24.463 -23.709  12.952  0.00  0.00    -0.056 A 
ATOM     29  C   UNL     1     -25.725 -23.914  12.392  0.00  0.00    -0.047 A 
ATOM     30  C   UNL     1     -26.023 -25.134  11.790  0.00  0.00    +0.018 A 
ATOM     31  C   UNL     1     -25.058 -26.134  11.706  0.00  0.00    -0.047 A 
ATOM     32  C   UNL     1     -23.797 -25.929  12.272  0.00  0.00    -0.056 A 
ATOM     33 BR   UNL     1     -27.761 -25.444  11.116  0.00  0.00    -0.050 Br
ENDBRANCH  26  27
ENDBRANCH   7  26
TORSDOF 7
ENDMDL
