MODEL 1
REMARK VINA RESULT:    -8.639      0.000      0.000
REMARK INTER + INTRA:         -11.195
REMARK INTER:                 -10.659
REMARK INTRA:                  -0.537
REMARK UNBOUND:                -0.537
REMARK  Name = 10.sdf
REMARK  5 active torsions:
REMARK  status: ('A' for Active; 'I' for Inactive)
REMARK    1  A    between atoms: C_9  and  C_10
REMARK    2  A    between atoms: C_11  and  C_12
REMARK    3  A    between atoms: C_12  and  C_13
REMARK    4  A    between atoms: C_17  and  O_20
REMARK    5  A    between atoms: O_20  and  C_21
REMARK                            x       y       z     vdW  Elec       q    Type
REMARK                         _______ _______ _______ _____ _____    ______ ____
ROOT
ATOM      1  C   UNL     1     106.371  23.654  31.083  0.00  0.00    -0.049 C 
ATOM      2  C   UNL     1     105.421  24.530  31.461  0.00  0.00    -0.014 C 
ENDROOT
BRANCH   1  11
ATOM      3  C   UNL     1     107.527  21.557  35.146  0.00  0.00    -0.061 A 
ATOM      4  C   UNL     1     108.891  21.660  35.401  0.00  0.00    -0.060 A 
ATOM      5  C   UNL     1     109.735  22.314  34.504  0.00  0.00    -0.038 A 
ATOM      6  C   UNL     1     109.164  22.857  33.347  0.00  0.00    +0.047 A 
ATOM      7  C   UNL     1     107.799  22.778  33.055  0.00  0.00    +0.007 A 
ATOM      8  C   UNL     1     106.967  22.112  33.982  0.00  0.00    -0.052 A 
ATOM      9  N   UNL     1     109.765  23.535  32.317  0.00  0.00    -0.360 N 
ATOM     10  C   UNL     1     108.836  23.896  31.382  0.00  0.00    +0.010 A 
ATOM     11  C   UNL     1     107.599  23.449  31.800  0.00  0.00    +0.000 A 
ATOM     12  H   UNL     1     110.728  23.735  32.260  0.00  0.00    +0.000 HD
ENDBRANCH   1  11
BRANCH   2  13
ATOM     13  C   UNL     1     104.130  24.707  30.742  0.00  0.00    +0.186 C 
ATOM     14  O   UNL     1     103.935  24.265  29.618  0.00  0.00    -0.287 OA
BRANCH  13  15
ATOM     15  C   UNL     1     103.089  25.511  31.450  0.00  0.00    +0.022 A 
ATOM     16  C   UNL     1     103.126  25.613  32.845  0.00  0.00    -0.047 A 
ATOM     17  C   UNL     1     102.139  26.337  33.530  0.00  0.00    -0.019 A 
ATOM     18  C   UNL     1     101.117  26.975  32.825  0.00  0.00    +0.120 A 
ATOM     19  C   UNL     1     101.100  26.898  31.431  0.00  0.00    -0.019 A 
ATOM     20  C   UNL     1     102.080  26.178  30.743  0.00  0.00    -0.047 A 
BRANCH  18  21
ATOM     21  O   UNL     1     100.087  27.696  33.362  0.00  0.00    -0.495 OA
ATOM     22  C   UNL     1      98.779  27.155  33.230  0.00  0.00    +0.079 C 
ENDBRANCH  18  21
ENDBRANCH  13  15
ENDBRANCH   2  13
TORSDOF 4
ENDMDL
MODEL 2
REMARK VINA RESULT:    -8.628      1.867      2.344
REMARK INTER + INTRA:         -11.182
REMARK INTER:                 -10.667
REMARK INTRA:                  -0.516
REMARK UNBOUND:                -0.537
REMARK  Name = 10.sdf
REMARK  5 active torsions:
REMARK  status: ('A' for Active; 'I' for Inactive)
REMARK    1  A    between atoms: C_9  and  C_10
REMARK    2  A    between atoms: C_11  and  C_12
REMARK    3  A    between atoms: C_12  and  C_13
REMARK    4  A    between atoms: C_17  and  O_20
REMARK    5  A    between atoms: O_20  and  C_21
REMARK                            x       y       z     vdW  Elec       q    Type
REMARK                         _______ _______ _______ _____ _____    ______ ____
ROOT
ATOM      1  C   UNL     1     105.667  25.626  33.379  0.00  0.00    -0.049 C 
ATOM      2  C   UNL     1     104.637  25.032  32.747  0.00  0.00    -0.014 C 
ENDROOT
BRANCH   1  11
ATOM      3  C   UNL     1     109.403  22.768  33.048  0.00  0.00    -0.061 A 
ATOM      4  C   UNL     1     109.852  22.370  34.304  0.00  0.00    -0.060 A 
ATOM      5  C   UNL     1     109.217  22.819  35.461  0.00  0.00    -0.038 A 
ATOM      6  C   UNL     1     108.121  23.678  35.314  0.00  0.00    +0.047 A 
ATOM      7  C   UNL     1     107.638  24.099  34.071  0.00  0.00    +0.007 A 
ATOM      8  C   UNL     1     108.299  23.627  32.916  0.00  0.00    -0.052 A 
ATOM      9  N   UNL     1     107.335  24.257  36.278  0.00  0.00    -0.360 N 
ATOM     10  C   UNL     1     106.367  25.028  35.698  0.00  0.00    +0.010 A 
ATOM     11  C   UNL     1     106.514  24.958  34.327  0.00  0.00    +0.000 A 
ATOM     12  H   UNL     1     107.452  24.135  37.248  0.00  0.00    +0.000 HD
ENDBRANCH   1  11
BRANCH   2  13
ATOM     13  C   UNL     1     103.790  25.714  31.731  0.00  0.00    +0.186 C 
ATOM     14  O   UNL     1     104.168  25.916  30.585  0.00  0.00    -0.287 OA
BRANCH  13  15
ATOM     15  C   UNL     1     102.457  26.195  32.203  0.00  0.00    +0.022 A 
ATOM     16  C   UNL     1     102.136  26.116  33.562  0.00  0.00    -0.047 A 
ATOM     17  C   UNL     1     100.877  26.535  34.020  0.00  0.00    -0.019 A 
ATOM     18  C   UNL     1      99.936  27.045  33.124  0.00  0.00    +0.120 A 
ATOM     19  C   UNL     1     100.270  27.152  31.772  0.00  0.00    -0.019 A 
ATOM     20  C   UNL     1     101.522  26.738  31.311  0.00  0.00    -0.047 A 
BRANCH  18  21
ATOM     21  O   UNL     1      98.674  27.471  33.428  0.00  0.00    -0.495 OA
ATOM     22  C   UNL     1      97.764  26.498  33.925  0.00  0.00    +0.079 C 
ENDBRANCH  18  21
ENDBRANCH  13  15
ENDBRANCH   2  13
TORSDOF 4
ENDMDL
MODEL 3
REMARK VINA RESULT:    -8.512      3.236      8.290
REMARK INTER + INTRA:         -11.039
REMARK INTER:                 -10.545
REMARK INTRA:                  -0.494
REMARK UNBOUND:                -0.537
REMARK  Name = 10.sdf
REMARK  5 active torsions:
REMARK  status: ('A' for Active; 'I' for Inactive)
REMARK    1  A    between atoms: C_9  and  C_10
REMARK    2  A    between atoms: C_11  and  C_12
REMARK    3  A    between atoms: C_12  and  C_13
REMARK    4  A    between atoms: C_17  and  O_20
REMARK    5  A    between atoms: O_20  and  C_21
REMARK                            x       y       z     vdW  Elec       q    Type
REMARK                         _______ _______ _______ _____ _____    ______ ____
ROOT
ATOM      1  C   UNL     1     105.095  25.763  33.487  0.00  0.00    -0.049 C 
ATOM      2  C   UNL     1     105.379  24.619  34.136  0.00  0.00    -0.014 C 
ENDROOT
BRANCH   1  11
ATOM      3  C   UNL     1     100.883  27.880  33.604  0.00  0.00    -0.061 A 
ATOM      4  C   UNL     1     100.187  27.695  32.413  0.00  0.00    -0.060 A 
ATOM      5  C   UNL     1     100.749  26.964  31.367  0.00  0.00    -0.038 A 
ATOM      6  C   UNL     1     102.030  26.431  31.558  0.00  0.00    +0.047 A 
ATOM      7  C   UNL     1     102.761  26.592  32.739  0.00  0.00    +0.007 A 
ATOM      8  C   UNL     1     102.166  27.335  33.782  0.00  0.00    -0.052 A 
ATOM      9  N   UNL     1     102.799  25.688  30.698  0.00  0.00    -0.360 N 
ATOM     10  C   UNL     1     103.990  25.366  31.286  0.00  0.00    +0.010 A 
ATOM     11  C   UNL     1     104.010  25.905  32.557  0.00  0.00    +0.000 A 
ATOM     12  H   UNL     1     102.531  25.424  29.788  0.00  0.00    +0.000 HD
ENDBRANCH   1  11
BRANCH   2  13
ATOM     13  C   UNL     1     106.475  24.487  35.135  0.00  0.00    +0.186 C 
ATOM     14  O   UNL     1     106.397  24.950  36.265  0.00  0.00    -0.287 OA
BRANCH  13  15
ATOM     15  C   UNL     1     107.715  23.801  34.663  0.00  0.00    +0.022 A 
ATOM     16  C   UNL     1     108.088  23.897  33.318  0.00  0.00    -0.047 A 
ATOM     17  C   UNL     1     109.232  23.234  32.849  0.00  0.00    -0.019 A 
ATOM     18  C   UNL     1     110.017  22.481  33.724  0.00  0.00    +0.120 A 
ATOM     19  C   UNL     1     109.660  22.411  35.072  0.00  0.00    -0.019 A 
ATOM     20  C   UNL     1     108.522  23.070  35.545  0.00  0.00    -0.047 A 
BRANCH  18  21
ATOM     21  O   UNL     1     111.142  21.773  33.402  0.00  0.00    -0.495 OA
ATOM     22  C   UNL     1     111.973  21.355  34.476  0.00  0.00    +0.079 C 
ENDBRANCH  18  21
ENDBRANCH  13  15
ENDBRANCH   2  13
TORSDOF 4
ENDMDL
