MODEL 1
REMARK VINA RESULT:    -9.465      0.000      0.000
REMARK INTER + INTRA:         -12.182
REMARK INTER:                 -11.678
REMARK INTRA:                  -0.504
REMARK UNBOUND:                -0.504
REMARK  Name = 17c.sdf
REMARK  4 active torsions:
REMARK  status: ('A' for Active; 'I' for Inactive)
REMARK    1  A    between atoms: N_7  and  C_16
REMARK    2  A    between atoms: C_9  and  C_10
REMARK    3  A    between atoms: N_11  and  N_12
REMARK    4  A    between atoms: C_16  and  C_17
REMARK                            x       y       z     vdW  Elec       q    Type
REMARK                         _______ _______ _______ _____ _____    ______ ____
ROOT
ATOM      1  C   UNL     1     102.913  25.252  29.840  0.00  0.00    -0.061 A 
ATOM      2  C   UNL     1     104.168  24.836  30.268  0.00  0.00    -0.060 A 
ATOM      3  C   UNL     1     104.652  25.182  31.537  0.00  0.00    -0.038 A 
ATOM      4  C   UNL     1     103.853  25.991  32.365  0.00  0.00    +0.050 A 
ATOM      5  C   UNL     1     102.561  26.373  31.972  0.00  0.00    +0.009 A 
ATOM      6  C   UNL     1     102.093  25.995  30.692  0.00  0.00    -0.052 A 
ATOM      7  N   UNL     1     104.088  26.571  33.603  0.00  0.00    -0.342 N 
ATOM      8  C   UNL     1     102.950  27.218  34.025  0.00  0.00    +0.015 A 
ATOM      9  C   UNL     1     101.978  27.105  33.051  0.00  0.00    +0.020 A 
ENDROOT
BRANCH   9  10
ATOM     10  C   UNL     1     100.632  27.638  33.130  0.00  0.00    +0.055 C 
ATOM     11  N   UNL     1      99.632  26.817  33.141  0.00  0.00    -0.186 NA
BRANCH  11  12
ATOM     12  N   UNL     1      98.392  27.393  33.178  0.00  0.00    -0.191 N 
ATOM     13  C   UNL     1      97.366  26.854  33.927  0.00  0.00    +0.317 C 
ATOM     14  O   UNL     1      96.265  27.361  34.001  0.00  0.00    -0.251 OA
ATOM     15  N   UNL     1      97.701  25.707  34.557  0.00  0.00    -0.312 N 
ATOM     16  H   UNL     1      98.227  28.212  32.658  0.00  0.00    +0.000 HD
ATOM     17  H   UNL     1      98.610  25.341  34.464  0.00  0.00    +0.000 HD
ATOM     18  H   UNL     1      97.035  25.238  35.111  0.00  0.00    +0.000 HD
ENDBRANCH  11  12
ENDBRANCH   9  10
BRANCH   7  19
ATOM     19  C   UNL     1     105.364  26.655  34.323  0.00  0.00    +0.048 C 
BRANCH  19  20
ATOM     20  C   UNL     1     106.084  25.330  34.363  0.00  0.00    -0.028 A 
ATOM     21  C   UNL     1     105.477  24.217  34.963  0.00  0.00    -0.055 A 
ATOM     22  C   UNL     1     106.211  23.054  35.203  0.00  0.00    -0.043 A 
ATOM     23  C   UNL     1     107.543  22.983  34.806  0.00  0.00    +0.041 A 
ATOM     24  C   UNL     1     108.125  24.033  34.102  0.00  0.00    -0.043 A 
ATOM     25  C   UNL     1     107.396  25.205  33.878  0.00  0.00    -0.055 A 
ATOM     26 CL   UNL     1     108.490  21.613  35.239  0.00  0.00    -0.084 Cl
ENDBRANCH  19  20
ENDBRANCH   7  19
TORSDOF 4
ENDMDL
MODEL 2
REMARK VINA RESULT:    -9.166      5.116      8.142
REMARK INTER + INTRA:         -11.813
REMARK INTER:                 -11.102
REMARK INTRA:                  -0.711
REMARK UNBOUND:                -0.504
REMARK  Name = 17c.sdf
REMARK  4 active torsions:
REMARK  status: ('A' for Active; 'I' for Inactive)
REMARK    1  A    between atoms: N_7  and  C_16
REMARK    2  A    between atoms: C_9  and  C_10
REMARK    3  A    between atoms: N_11  and  N_12
REMARK    4  A    between atoms: C_16  and  C_17
REMARK                            x       y       z     vdW  Elec       q    Type
REMARK                         _______ _______ _______ _____ _____    ______ ____
ROOT
ATOM      1  C   UNL     1     107.649  23.692  35.531  0.00  0.00    -0.061 A 
ATOM      2  C   UNL     1     106.920  24.780  35.996  0.00  0.00    -0.060 A 
ATOM      3  C   UNL     1     105.980  25.424  35.179  0.00  0.00    -0.038 A 
ATOM      4  C   UNL     1     105.812  24.968  33.859  0.00  0.00    +0.050 A 
ATOM      5  C   UNL     1     106.498  23.837  33.391  0.00  0.00    +0.009 A 
ATOM      6  C   UNL     1     107.427  23.198  34.244  0.00  0.00    -0.052 A 
ATOM      7  N   UNL     1     105.053  25.448  32.801  0.00  0.00    -0.342 N 
ATOM      8  C   UNL     1     105.179  24.595  31.729  0.00  0.00    +0.015 A 
ATOM      9  C   UNL     1     106.052  23.578  32.060  0.00  0.00    +0.020 A 
ENDROOT
BRANCH   9  10
ATOM     10  C   UNL     1     106.431  22.472  31.202  0.00  0.00    +0.055 C 
ATOM     11  N   UNL     1     107.648  22.403  30.769  0.00  0.00    -0.186 NA
BRANCH  11  12
ATOM     12  N   UNL     1     107.922  21.354  29.934  0.00  0.00    -0.191 N 
ATOM     13  C   UNL     1     108.531  21.543  28.712  0.00  0.00    +0.317 C 
ATOM     14  O   UNL     1     108.813  20.627  27.965  0.00  0.00    -0.251 OA
ATOM     15  N   UNL     1     108.772  22.840  28.421  0.00  0.00    -0.312 N 
ATOM     16  H   UNL     1     107.679  20.442  30.214  0.00  0.00    +0.000 HD
ATOM     17  H   UNL     1     108.524  23.543  29.064  0.00  0.00    +0.000 HD
ATOM     18  H   UNL     1     109.197  23.082  27.566  0.00  0.00    +0.000 HD
ENDBRANCH  11  12
ENDBRANCH   9  10
BRANCH   7  19
ATOM     19  C   UNL     1     104.341  26.728  32.719  0.00  0.00    +0.048 C 
BRANCH  19  20
ATOM     20  C   UNL     1     102.843  26.548  32.729  0.00  0.00    -0.028 A 
ATOM     21  C   UNL     1     102.123  26.568  31.526  0.00  0.00    -0.055 A 
ATOM     22  C   UNL     1     100.728  26.624  31.536  0.00  0.00    -0.043 A 
ATOM     23  C   UNL     1     100.045  26.619  32.749  0.00  0.00    +0.041 A 
ATOM     24  C   UNL     1     100.739  26.479  33.947  0.00  0.00    -0.043 A 
ATOM     25  C   UNL     1     102.136  26.441  33.938  0.00  0.00    -0.055 A 
ATOM     26 CL   UNL     1      98.339  26.846  32.766  0.00  0.00    -0.084 Cl
ENDBRANCH  19  20
ENDBRANCH   7  19
TORSDOF 4
ENDMDL
MODEL 3
REMARK VINA RESULT:    -8.757      3.578      5.171
REMARK INTER + INTRA:         -11.308
REMARK INTER:                 -10.528
REMARK INTRA:                  -0.780
REMARK UNBOUND:                -0.504
REMARK  Name = 17c.sdf
REMARK  4 active torsions:
REMARK  status: ('A' for Active; 'I' for Inactive)
REMARK    1  A    between atoms: N_7  and  C_16
REMARK    2  A    between atoms: C_9  and  C_10
REMARK    3  A    between atoms: N_11  and  N_12
REMARK    4  A    between atoms: C_16  and  C_17
REMARK                            x       y       z     vdW  Elec       q    Type
REMARK                         _______ _______ _______ _____ _____    ______ ____
ROOT
ATOM      1  C   UNL     1     106.337  25.477  35.560  0.00  0.00    -0.061 A 
ATOM      2  C   UNL     1     107.364  24.555  35.393  0.00  0.00    -0.060 A 
ATOM      3  C   UNL     1     107.537  23.876  34.179  0.00  0.00    -0.038 A 
ATOM      4  C   UNL     1     106.627  24.122  33.135  0.00  0.00    +0.050 A 
ATOM      5  C   UNL     1     105.619  25.089  33.267  0.00  0.00    +0.009 A 
ATOM      6  C   UNL     1     105.479  25.770  34.498  0.00  0.00    -0.052 A 
ATOM      7  N   UNL     1     106.475  23.548  31.881  0.00  0.00    -0.342 N 
ATOM      8  C   UNL     1     105.468  24.196  31.204  0.00  0.00    +0.015 A 
ATOM      9  C   UNL     1     104.925  25.166  32.021  0.00  0.00    +0.020 A 
ENDROOT
BRANCH   9  10
ATOM     10  C   UNL     1     103.853  26.074  31.664  0.00  0.00    +0.055 C 
ATOM     11  N   UNL     1     102.631  25.733  31.918  0.00  0.00    -0.186 NA
BRANCH  11  12
ATOM     12  N   UNL     1     101.671  26.621  31.518  0.00  0.00    -0.191 N 
ATOM     13  C   UNL     1     100.737  27.123  32.400  0.00  0.00    +0.317 C 
ATOM     14  O   UNL     1      99.893  27.935  32.079  0.00  0.00    -0.251 OA
ATOM     15  N   UNL     1     100.843  26.615  33.648  0.00  0.00    -0.312 N 
ATOM     16  H   UNL     1     101.647  26.911  30.577  0.00  0.00    +0.000 HD
ATOM     17  H   UNL     1     101.548  25.960  33.854  0.00  0.00    +0.000 HD
ATOM     18  H   UNL     1     100.217  26.902  34.351  0.00  0.00    +0.000 HD
ENDBRANCH  11  12
ENDBRANCH   9  10
BRANCH   7  19
ATOM     19  C   UNL     1     107.136  22.345  31.362  0.00  0.00    +0.048 C 
BRANCH  19  20
ATOM     20  C   UNL     1     108.266  22.678  30.419  0.00  0.00    -0.028 A 
ATOM     21  C   UNL     1     109.262  23.586  30.806  0.00  0.00    -0.055 A 
ATOM     22  C   UNL     1     110.183  24.068  29.874  0.00  0.00    -0.043 A 
ATOM     23  C   UNL     1     110.138  23.612  28.559  0.00  0.00    +0.041 A 
ATOM     24  C   UNL     1     109.233  22.622  28.188  0.00  0.00    -0.043 A 
ATOM     25  C   UNL     1     108.299  22.153  29.116  0.00  0.00    -0.055 A 
ATOM     26 CL   UNL     1     111.168  24.320  27.376  0.00  0.00    -0.084 Cl
ENDBRANCH  19  20
ENDBRANCH   7  19
TORSDOF 4
ENDMDL
