MODEL 1
REMARK VINA RESULT:    -8.925      0.000      0.000
REMARK INTER + INTRA:         -11.021
REMARK INTER:                 -10.490
REMARK INTRA:                  -0.531
REMARK UNBOUND:                -0.531
REMARK  Name = 17d.sdf
REMARK  3 active torsions:
REMARK  status: ('A' for Active; 'I' for Inactive)
REMARK    1  A    between atoms: C_9  and  C_10
REMARK    2  A    between atoms: N_11  and  N_12
REMARK    3  A    between atoms: C_16  and  C_17
REMARK                            x       y       z     vdW  Elec       q    Type
REMARK                         _______ _______ _______ _____ _____    ______ ____
ROOT
ATOM      1  C   UNL     1     108.526  23.054  35.887  0.00  0.00    -0.061 A 
ATOM      2  C   UNL     1     109.639  22.434  35.335  0.00  0.00    -0.060 A 
ATOM      3  C   UNL     1     109.850  22.433  33.955  0.00  0.00    -0.037 A 
ATOM      4  C   UNL     1     108.907  23.073  33.129  0.00  0.00    +0.057 A 
ATOM      5  C   UNL     1     107.779  23.712  33.666  0.00  0.00    +0.009 A 
ATOM      6  C   UNL     1     107.592  23.693  35.066  0.00  0.00    -0.052 A 
ATOM      7  N   UNL     1     108.893  23.269  31.748  0.00  0.00    -0.282 N 
ATOM      8  C   UNL     1     107.738  23.958  31.435  0.00  0.00    +0.023 A 
ATOM      9  C   UNL     1     107.043  24.270  32.583  0.00  0.00    +0.020 A 
ATOM     10  C   UNL     1     109.871  22.863  30.806  0.00  0.00    +0.263 C 
ATOM     11  O   UNL     1     110.607  21.925  31.097  0.00  0.00    -0.267 OA
ENDROOT
BRANCH  10  12
ATOM     12  C   UNL     1     110.041  23.526  29.486  0.00  0.00    +0.040 A 
ATOM     13  C   UNL     1     109.647  22.869  28.311  0.00  0.00    -0.049 A 
ATOM     14  C   UNL     1     109.849  23.472  27.072  0.00  0.00    -0.061 A 
ATOM     15  C   UNL     1     110.414  24.745  27.006  0.00  0.00    -0.062 A 
ATOM     16  C   UNL     1     110.762  25.421  28.176  0.00  0.00    -0.061 A 
ATOM     17  C   UNL     1     110.571  24.818  29.420  0.00  0.00    -0.049 A 
ENDBRANCH  10  12
BRANCH   9  18
ATOM     18  C   UNL     1     105.804  25.019  32.611  0.00  0.00    +0.055 C 
ATOM     19  N   UNL     1     104.960  24.822  31.651  0.00  0.00    -0.186 NA
BRANCH  19  20
ATOM     20  N   UNL     1     103.802  25.545  31.708  0.00  0.00    -0.191 N 
ATOM     21  C   UNL     1     102.973  25.649  30.616  0.00  0.00    +0.317 C 
ATOM     22  O   UNL     1     101.902  26.238  30.646  0.00  0.00    -0.251 OA
ATOM     23  N   UNL     1     103.455  25.054  29.494  0.00  0.00    -0.312 N 
ATOM     24  H   UNL     1     103.558  26.000  32.546  0.00  0.00    +0.000 HD
ATOM     25  H   UNL     1     104.323  24.590  29.517  0.00  0.00    +0.000 HD
ATOM     26  H   UNL     1     102.935  25.085  28.660  0.00  0.00    +0.000 HD
ENDBRANCH  19  20
ENDBRANCH   9  18
TORSDOF 3
ENDMDL
MODEL 2
REMARK VINA RESULT:    -8.883      2.679      6.292
REMARK INTER + INTRA:         -10.972
REMARK INTER:                 -10.953
REMARK INTRA:                  -0.019
REMARK UNBOUND:                -0.531
REMARK  Name = 17d.sdf
REMARK  3 active torsions:
REMARK  status: ('A' for Active; 'I' for Inactive)
REMARK    1  A    between atoms: C_9  and  C_10
REMARK    2  A    between atoms: N_11  and  N_12
REMARK    3  A    between atoms: C_16  and  C_17
REMARK                            x       y       z     vdW  Elec       q    Type
REMARK                         _______ _______ _______ _____ _____    ______ ____
ROOT
ATOM      1  C   UNL     1     108.632  22.789  35.250  0.00  0.00    -0.061 A 
ATOM      2  C   UNL     1     108.066  23.888  35.883  0.00  0.00    -0.060 A 
ATOM      3  C   UNL     1     107.092  24.660  35.247  0.00  0.00    -0.037 A 
ATOM      4  C   UNL     1     106.695  24.304  33.944  0.00  0.00    +0.057 A 
ATOM      5  C   UNL     1     107.249  23.193  33.289  0.00  0.00    +0.009 A 
ATOM      6  C   UNL     1     108.234  22.433  33.958  0.00  0.00    -0.052 A 
ATOM      7  N   UNL     1     105.724  24.855  33.107  0.00  0.00    -0.282 N 
ATOM      8  C   UNL     1     105.730  24.134  31.929  0.00  0.00    +0.023 A 
ATOM      9  C   UNL     1     106.630  23.094  32.011  0.00  0.00    +0.020 A 
ATOM     10  C   UNL     1     104.860  25.943  33.383  0.00  0.00    +0.263 C 
ATOM     11  O   UNL     1     105.203  26.759  34.234  0.00  0.00    -0.267 OA
ENDROOT
BRANCH  10  12
ATOM     12  C   UNL     1     103.561  26.136  32.687  0.00  0.00    +0.040 A 
ATOM     13  C   UNL     1     103.494  26.075  31.288  0.00  0.00    -0.049 A 
ATOM     14  C   UNL     1     102.285  26.301  30.635  0.00  0.00    -0.061 A 
ATOM     15  C   UNL     1     101.134  26.557  31.379  0.00  0.00    -0.062 A 
ATOM     16  C   UNL     1     101.187  26.570  32.774  0.00  0.00    -0.061 A 
ATOM     17  C   UNL     1     102.399  26.353  33.433  0.00  0.00    -0.049 A 
ENDBRANCH  10  12
BRANCH   9  18
ATOM     18  C   UNL     1     106.858  22.125  30.958  0.00  0.00    +0.055 C 
ATOM     19  N   UNL     1     108.033  22.088  30.420  0.00  0.00    -0.186 NA
BRANCH  19  20
ATOM     20  N   UNL     1     108.214  21.164  29.431  0.00  0.00    -0.191 N 
ATOM     21  C   UNL     1     108.616  21.538  28.171  0.00  0.00    +0.317 C 
ATOM     22  O   UNL     1     108.843  20.734  27.277  0.00  0.00    -0.251 OA
ATOM     23  N   UNL     1     108.723  22.881  27.998  0.00  0.00    -0.312 N 
ATOM     24  H   UNL     1     108.052  20.212  29.624  0.00  0.00    +0.000 HD
ATOM     25  H   UNL     1     108.530  23.490  28.747  0.00  0.00    +0.000 HD
ATOM     26  H   UNL     1     108.995  23.244  27.126  0.00  0.00    +0.000 HD
ENDBRANCH  19  20
ENDBRANCH   9  18
TORSDOF 3
ENDMDL
MODEL 3
REMARK VINA RESULT:    -7.661      3.355      7.685
REMARK INTER + INTRA:          -9.536
REMARK INTER:                  -9.167
REMARK INTRA:                  -0.369
REMARK UNBOUND:                -0.531
REMARK  Name = 17d.sdf
REMARK  3 active torsions:
REMARK  status: ('A' for Active; 'I' for Inactive)
REMARK    1  A    between atoms: C_9  and  C_10
REMARK    2  A    between atoms: N_11  and  N_12
REMARK    3  A    between atoms: C_16  and  C_17
REMARK                            x       y       z     vdW  Elec       q    Type
REMARK                         _______ _______ _______ _____ _____    ______ ____
ROOT
ATOM      1  C   UNL     1     111.253  24.698  27.183  0.00  0.00    -0.061 A 
ATOM      2  C   UNL     1     110.560  25.549  28.035  0.00  0.00    -0.060 A 
ATOM      3  C   UNL     1     110.017  25.080  29.233  0.00  0.00    -0.037 A 
ATOM      4  C   UNL     1     110.185  23.721  29.562  0.00  0.00    +0.057 A 
ATOM      5  C   UNL     1     110.888  22.847  28.720  0.00  0.00    +0.009 A 
ATOM      6  C   UNL     1     111.423  23.350  27.513  0.00  0.00    -0.052 A 
ATOM      7  N   UNL     1     109.802  23.008  30.698  0.00  0.00    -0.282 N 
ATOM      8  C   UNL     1     110.205  21.698  30.524  0.00  0.00    +0.023 A 
ATOM      9  C   UNL     1     110.895  21.565  29.339  0.00  0.00    +0.020 A 
ATOM     10  C   UNL     1     109.135  23.501  31.846  0.00  0.00    +0.263 C 
ATOM     11  O   UNL     1     108.461  24.522  31.736  0.00  0.00    -0.267 OA
ENDROOT
BRANCH  10  12
ATOM     12  C   UNL     1     109.218  22.837  33.174  0.00  0.00    +0.040 A 
ATOM     13  C   UNL     1     108.049  22.445  33.840  0.00  0.00    -0.049 A 
ATOM     14  C   UNL     1     108.125  21.864  35.104  0.00  0.00    -0.061 A 
ATOM     15  C   UNL     1     109.371  21.644  35.689  0.00  0.00    -0.062 A 
ATOM     16  C   UNL     1     110.539  21.988  35.008  0.00  0.00    -0.061 A 
ATOM     17  C   UNL     1     110.467  22.579  33.745  0.00  0.00    -0.049 A 
ENDBRANCH  10  12
BRANCH   9  18
ATOM     18  C   UNL     1     111.483  20.327  28.871  0.00  0.00    +0.055 C 
ATOM     19  N   UNL     1     110.732  19.526  28.186  0.00  0.00    -0.186 NA
BRANCH  19  20
ATOM     20  N   UNL     1     111.318  18.368  27.760  0.00  0.00    -0.191 N 
ATOM     21  C   UNL     1     110.915  17.146  28.244  0.00  0.00    +0.317 C 
ATOM     22  O   UNL     1     111.376  16.086  27.845  0.00  0.00    -0.251 OA
ATOM     23  N   UNL     1     109.972  17.219  29.219  0.00  0.00    -0.312 N 
ATOM     24  H   UNL     1     112.042  18.410  27.094  0.00  0.00    +0.000 HD
ATOM     25  H   UNL     1     109.630  18.095  29.508  0.00  0.00    +0.000 HD
ATOM     26  H   UNL     1     109.630  16.395  29.633  0.00  0.00    +0.000 HD
ENDBRANCH  19  20
ENDBRANCH   9  18
TORSDOF 3
ENDMDL
