MODEL 1
REMARK VINA RESULT:    -7.698      0.000      0.000
REMARK INTER + INTRA:          -8.856
REMARK INTER:                  -8.598
REMARK INTRA:                  -0.258
REMARK UNBOUND:                -0.258
REMARK  Name = 17e.sdf
REMARK  3 active torsions:
REMARK  status: ('A' for Active; 'I' for Inactive)
REMARK    1  A    between atoms: C_9  and  C_10
REMARK    2  A    between atoms: N_11  and  N_12
REMARK    3  A    between atoms: C_16  and  C_17
REMARK                            x       y       z     vdW  Elec       q    Type
REMARK                         _______ _______ _______ _____ _____    ______ ____
ROOT
ATOM      1  C   UNL     1     107.497  24.389  35.218  0.00  0.00    -0.061 A 
ATOM      2  C   UNL     1     106.622  25.446  35.423  0.00  0.00    -0.060 A 
ATOM      3  C   UNL     1     105.672  25.783  34.455  0.00  0.00    -0.037 A 
ATOM      4  C   UNL     1     105.611  25.033  33.262  0.00  0.00    +0.057 A 
ATOM      5  C   UNL     1     106.489  23.962  33.042  0.00  0.00    +0.009 A 
ATOM      6  C   UNL     1     107.441  23.643  34.038  0.00  0.00    -0.052 A 
ATOM      7  N   UNL     1     104.771  25.154  32.144  0.00  0.00    -0.287 N 
ATOM      8  C   UNL     1     105.141  24.160  31.256  0.00  0.00    +0.022 A 
ATOM      9  C   UNL     1     106.184  23.413  31.768  0.00  0.00    +0.020 A 
ATOM     10  C   UNL     1     103.745  26.117  31.977  0.00  0.00    +0.229 C 
ATOM     11  C   UNL     1     102.943  26.091  30.710  0.00  0.00    +0.015 C 
ATOM     12  O   UNL     1     103.531  26.947  32.859  0.00  0.00    -0.273 OA
ENDROOT
BRANCH   9  13
ATOM     13  C   UNL     1     106.810  22.292  31.093  0.00  0.00    +0.055 C 
ATOM     14  N   UNL     1     107.804  22.544  30.302  0.00  0.00    -0.186 NA
BRANCH  14  15
ATOM     15  N   UNL     1     108.375  21.469  29.680  0.00  0.00    -0.191 N 
ATOM     16  C   UNL     1     108.616  21.477  28.327  0.00  0.00    +0.317 C 
ATOM     17  O   UNL     1     109.127  20.537  27.732  0.00  0.00    -0.251 OA
ATOM     18  N   UNL     1     108.241  22.619  27.700  0.00  0.00    -0.312 N 
ATOM     19  H   UNL     1     108.616  20.676  30.209  0.00  0.00    +0.000 HD
ATOM     20  H   UNL     1     107.833  23.352  28.215  0.00  0.00    +0.000 HD
ATOM     21  H   UNL     1     108.377  22.715  26.730  0.00  0.00    +0.000 HD
ENDBRANCH  14  15
ENDBRANCH   9  13
TORSDOF 2
ENDMDL
MODEL 2
REMARK VINA RESULT:    -7.670      0.843      3.237
REMARK INTER + INTRA:          -8.825
REMARK INTER:                  -8.566
REMARK INTRA:                  -0.259
REMARK UNBOUND:                -0.258
REMARK  Name = 17e.sdf
REMARK  3 active torsions:
REMARK  status: ('A' for Active; 'I' for Inactive)
REMARK    1  A    between atoms: C_9  and  C_10
REMARK    2  A    between atoms: N_11  and  N_12
REMARK    3  A    between atoms: C_16  and  C_17
REMARK                            x       y       z     vdW  Elec       q    Type
REMARK                         _______ _______ _______ _____ _____    ______ ____
ROOT
ATOM      1  C   UNL     1     103.269  25.015  29.568  0.00  0.00    -0.061 A 
ATOM      2  C   UNL     1     102.926  25.963  30.521  0.00  0.00    -0.060 A 
ATOM      3  C   UNL     1     103.594  26.017  31.747  0.00  0.00    -0.037 A 
ATOM      4  C   UNL     1     104.627  25.092  32.007  0.00  0.00    +0.057 A 
ATOM      5  C   UNL     1     104.985  24.129  31.053  0.00  0.00    +0.009 A 
ATOM      6  C   UNL     1     104.293  24.098  29.821  0.00  0.00    -0.052 A 
ATOM      7  N   UNL     1     105.448  24.925  33.134  0.00  0.00    -0.287 N 
ATOM      8  C   UNL     1     106.294  23.867  32.859  0.00  0.00    +0.022 A 
ATOM      9  C   UNL     1     106.045  23.357  31.601  0.00  0.00    +0.020 A 
ATOM     10  C   UNL     1     105.400  25.704  34.317  0.00  0.00    +0.229 C 
ATOM     11  C   UNL     1     106.361  25.379  35.422  0.00  0.00    +0.015 C 
ATOM     12  O   UNL     1     104.585  26.618  34.420  0.00  0.00    -0.273 OA
ENDROOT
BRANCH   9  13
ATOM     13  C   UNL     1     106.756  22.244  31.001  0.00  0.00    +0.055 C 
ATOM     14  N   UNL     1     107.709  22.517  30.169  0.00  0.00    -0.186 NA
BRANCH  14  15
ATOM     15  N   UNL     1     108.361  21.449  29.619  0.00  0.00    -0.191 N 
ATOM     16  C   UNL     1     108.688  21.426  28.283  0.00  0.00    +0.317 C 
ATOM     17  O   UNL     1     109.273  20.492  27.753  0.00  0.00    -0.251 OA
ATOM     18  N   UNL     1     108.307  22.532  27.598  0.00  0.00    -0.312 N 
ATOM     19  H   UNL     1     108.601  20.683  30.188  0.00  0.00    +0.000 HD
ATOM     20  H   UNL     1     107.838  23.262  28.062  0.00  0.00    +0.000 HD
ATOM     21  H   UNL     1     108.500  22.605  26.636  0.00  0.00    +0.000 HD
ENDBRANCH  14  15
ENDBRANCH   9  13
TORSDOF 2
ENDMDL
MODEL 3
REMARK VINA RESULT:    -7.302      3.257      4.734
REMARK INTER + INTRA:          -8.413
REMARK INTER:                  -8.227
REMARK INTRA:                  -0.187
REMARK UNBOUND:                -0.258
REMARK  Name = 17e.sdf
REMARK  3 active torsions:
REMARK  status: ('A' for Active; 'I' for Inactive)
REMARK    1  A    between atoms: C_9  and  C_10
REMARK    2  A    between atoms: N_11  and  N_12
REMARK    3  A    between atoms: C_16  and  C_17
REMARK                            x       y       z     vdW  Elec       q    Type
REMARK                         _______ _______ _______ _____ _____    ______ ____
ROOT
ATOM      1  C   UNL     1     105.239  23.515  30.140  0.00  0.00    -0.061 A 
ATOM      2  C   UNL     1     104.055  24.085  29.697  0.00  0.00    -0.060 A 
ATOM      3  C   UNL     1     103.339  24.967  30.512  0.00  0.00    -0.037 A 
ATOM      4  C   UNL     1     103.837  25.273  31.796  0.00  0.00    +0.057 A 
ATOM      5  C   UNL     1     105.033  24.705  32.256  0.00  0.00    +0.009 A 
ATOM      6  C   UNL     1     105.737  23.816  31.411  0.00  0.00    -0.052 A 
ATOM      7  N   UNL     1     103.329  26.112  32.801  0.00  0.00    -0.287 N 
ATOM      8  C   UNL     1     104.216  26.047  33.860  0.00  0.00    +0.022 A 
ATOM      9  C   UNL     1     105.267  25.202  33.566  0.00  0.00    +0.020 A 
ATOM     10  C   UNL     1     102.134  26.869  32.724  0.00  0.00    +0.229 C 
ATOM     11  C   UNL     1     101.750  27.714  33.903  0.00  0.00    +0.015 C 
ATOM     12  O   UNL     1     101.440  26.823  31.710  0.00  0.00    -0.273 OA
ENDROOT
BRANCH   9  13
ATOM     13  C   UNL     1     106.373  24.912  34.458  0.00  0.00    +0.055 C 
ATOM     14  N   UNL     1     106.516  23.690  34.863  0.00  0.00    -0.186 NA
BRANCH  14  15
ATOM     15  N   UNL     1     107.566  23.446  35.703  0.00  0.00    -0.191 N 
ATOM     16  C   UNL     1     108.680  22.767  35.270  0.00  0.00    +0.317 C 
ATOM     17  O   UNL     1     109.642  22.530  35.988  0.00  0.00    -0.251 OA
ATOM     18  N   UNL     1     108.627  22.380  33.971  0.00  0.00    -0.312 N 
ATOM     19  H   UNL     1     107.524  23.761  36.635  0.00  0.00    +0.000 HD
ATOM     20  H   UNL     1     107.834  22.591  33.427  0.00  0.00    +0.000 HD
ATOM     21  H   UNL     1     109.381  21.890  33.573  0.00  0.00    +0.000 HD
ENDBRANCH  14  15
ENDBRANCH   9  13
TORSDOF 2
ENDMDL
