MODEL 1
REMARK VINA RESULT:    -8.701      0.000      0.000
REMARK INTER + INTRA:         -12.680
REMARK INTER:                 -11.753
REMARK INTRA:                  -0.927
REMARK UNBOUND:                -0.927
REMARK  Name = 17j.sdf
REMARK  8 active torsions:
REMARK  status: ('A' for Active; 'I' for Inactive)
REMARK    1  A    between atoms: N_7  and  C_16
REMARK    2  A    between atoms: C_9  and  C_10
REMARK    3  A    between atoms: N_11  and  N_12
REMARK    4  A    between atoms: C_16  and  C_17
REMARK    5  A    between atoms: C_19  and  O_23
REMARK    6  A    between atoms: C_21  and  O_25
REMARK    7  A    between atoms: O_23  and  C_24
REMARK    8  A    between atoms: O_25  and  C_26
REMARK                            x       y       z     vdW  Elec       q    Type
REMARK                         _______ _______ _______ _____ _____    ______ ____
ROOT
ATOM      1  C   UNL     1     106.449  25.405  35.851  0.00  0.00    -0.061 A 
ATOM      2  C   UNL     1     107.433  24.428  35.756  0.00  0.00    -0.060 A 
ATOM      3  C   UNL     1     107.597  23.682  34.584  0.00  0.00    -0.038 A 
ATOM      4  C   UNL     1     106.735  23.944  33.506  0.00  0.00    +0.050 A 
ATOM      5  C   UNL     1     105.764  24.952  33.563  0.00  0.00    +0.009 A 
ATOM      6  C   UNL     1     105.618  25.684  34.762  0.00  0.00    -0.052 A 
ATOM      7  N   UNL     1     106.628  23.352  32.262  0.00  0.00    -0.342 N 
ATOM      8  C   UNL     1     105.673  23.998  31.519  0.00  0.00    +0.015 A 
ATOM      9  C   UNL     1     105.117  25.003  32.288  0.00  0.00    +0.020 A 
ENDROOT
BRANCH   9  10
ATOM     10  C   UNL     1     104.085  25.923  31.858  0.00  0.00    +0.055 C 
ATOM     11  N   UNL     1     102.844  25.597  32.023  0.00  0.00    -0.186 NA
BRANCH  11  12
ATOM     12  N   UNL     1     101.933  26.515  31.573  0.00  0.00    -0.191 N 
ATOM     13  C   UNL     1     100.944  27.005  32.389  0.00  0.00    +0.317 C 
ATOM     14  O   UNL     1     100.127  27.840  32.023  0.00  0.00    -0.251 OA
ATOM     15  N   UNL     1     100.957  26.488  33.643  0.00  0.00    -0.312 N 
ATOM     16  H   UNL     1     101.990  26.832  30.643  0.00  0.00    +0.000 HD
ATOM     17  H   UNL     1     101.633  25.818  33.892  0.00  0.00    +0.000 HD
ATOM     18  H   UNL     1     100.289  26.784  34.304  0.00  0.00    +0.000 HD
ENDBRANCH  11  12
ENDBRANCH   9  10
BRANCH   7  19
ATOM     19  C   UNL     1     107.366  22.176  31.796  0.00  0.00    +0.049 C 
BRANCH  19  20
ATOM     20  C   UNL     1     108.306  22.432  30.637  0.00  0.00    -0.021 A 
ATOM     21  C   UNL     1     109.245  23.473  30.624  0.00  0.00    -0.015 A 
ATOM     22  C   UNL     1     110.028  23.720  29.495  0.00  0.00    +0.124 A 
ATOM     23  C   UNL     1     109.917  22.888  28.379  0.00  0.00    +0.022 A 
ATOM     24  C   UNL     1     109.025  21.817  28.383  0.00  0.00    +0.124 A 
ATOM     25  C   UNL     1     108.226  21.596  29.509  0.00  0.00    -0.015 A 
BRANCH  22  26
ATOM     26  O   UNL     1     110.926  24.746  29.362  0.00  0.00    -0.495 OA
ATOM     27  C   UNL     1     110.599  25.758  28.416  0.00  0.00    +0.079 C 
ENDBRANCH  22  26
BRANCH  24  28
ATOM     28  O   UNL     1     108.836  20.927  27.360  0.00  0.00    -0.495 OA
ATOM     29  C   UNL     1     109.498  21.211  26.132  0.00  0.00    +0.079 C 
ENDBRANCH  24  28
ENDBRANCH  19  20
ENDBRANCH   7  19
TORSDOF 6
ENDMDL
MODEL 2
REMARK VINA RESULT:    -8.518      2.627      7.347
REMARK INTER + INTRA:         -12.433
REMARK INTER:                 -11.666
REMARK INTRA:                  -0.766
REMARK UNBOUND:                -0.927
REMARK  Name = 17j.sdf
REMARK  8 active torsions:
REMARK  status: ('A' for Active; 'I' for Inactive)
REMARK    1  A    between atoms: N_7  and  C_16
REMARK    2  A    between atoms: C_9  and  C_10
REMARK    3  A    between atoms: N_11  and  N_12
REMARK    4  A    between atoms: C_16  and  C_17
REMARK    5  A    between atoms: C_19  and  O_23
REMARK    6  A    between atoms: C_21  and  O_25
REMARK    7  A    between atoms: O_23  and  C_24
REMARK    8  A    between atoms: O_25  and  C_26
REMARK                            x       y       z     vdW  Elec       q    Type
REMARK                         _______ _______ _______ _____ _____    ______ ____
ROOT
ATOM      1  C   UNL     1     106.868  21.146  35.160  0.00  0.00    -0.061 A 
ATOM      2  C   UNL     1     105.858  21.897  35.752  0.00  0.00    -0.060 A 
ATOM      3  C   UNL     1     105.600  23.208  35.340  0.00  0.00    -0.038 A 
ATOM      4  C   UNL     1     106.392  23.749  34.313  0.00  0.00    +0.050 A 
ATOM      5  C   UNL     1     107.386  22.998  33.673  0.00  0.00    +0.009 A 
ATOM      6  C   UNL     1     107.629  21.678  34.116  0.00  0.00    -0.052 A 
ATOM      7  N   UNL     1     106.402  25.004  33.737  0.00  0.00    -0.342 N 
ATOM      8  C   UNL     1     107.318  25.041  32.717  0.00  0.00    +0.015 A 
ATOM      9  C   UNL     1     107.947  23.812  32.639  0.00  0.00    +0.020 A 
ENDROOT
BRANCH   9  10
ATOM     10  C   UNL     1     108.967  23.444  31.680  0.00  0.00    +0.055 C 
ATOM     11  N   UNL     1     109.535  24.372  30.980  0.00  0.00    -0.186 NA
BRANCH  11  12
ATOM     12  N   UNL     1     110.476  23.937  30.085  0.00  0.00    -0.191 N 
ATOM     13  C   UNL     1     110.711  24.602  28.908  0.00  0.00    +0.317 C 
ATOM     14  O   UNL     1     111.558  24.250  28.097  0.00  0.00    -0.251 OA
ATOM     15  N   UNL     1     109.927  25.694  28.726  0.00  0.00    -0.312 N 
ATOM     16  H   UNL     1     110.997  23.128  30.292  0.00  0.00    +0.000 HD
ATOM     17  H   UNL     1     109.258  25.939  29.405  0.00  0.00    +0.000 HD
ATOM     18  H   UNL     1     110.026  26.241  27.913  0.00  0.00    +0.000 HD
ENDBRANCH  11  12
ENDBRANCH   9  10
BRANCH   7  19
ATOM     19  C   UNL     1     105.609  26.159  34.163  0.00  0.00    +0.049 C 
BRANCH  19  20
ATOM     20  C   UNL     1     104.327  26.372  33.388  0.00  0.00    -0.021 A 
ATOM     21  C   UNL     1     103.214  27.044  33.913  0.00  0.00    -0.015 A 
ATOM     22  C   UNL     1     102.024  27.138  33.188  0.00  0.00    +0.124 A 
ATOM     23  C   UNL     1     101.953  26.603  31.900  0.00  0.00    +0.022 A 
ATOM     24  C   UNL     1     103.060  25.972  31.336  0.00  0.00    +0.124 A 
ATOM     25  C   UNL     1     104.237  25.860  32.081  0.00  0.00    -0.015 A 
BRANCH  22  26
ATOM     26  O   UNL     1     100.867  27.718  33.636  0.00  0.00    -0.495 OA
ATOM     27  C   UNL     1      99.803  27.823  32.695  0.00  0.00    +0.079 C 
ENDBRANCH  22  26
BRANCH  24  28
ATOM     28  O   UNL     1     103.118  25.423  30.083  0.00  0.00    -0.495 OA
ATOM     29  C   UNL     1     103.961  24.286  29.920  0.00  0.00    +0.079 C 
ENDBRANCH  24  28
ENDBRANCH  19  20
ENDBRANCH   7  19
TORSDOF 6
ENDMDL
MODEL 3
REMARK VINA RESULT:    -8.411      0.357      2.183
REMARK INTER + INTRA:         -12.288
REMARK INTER:                 -11.437
REMARK INTRA:                  -0.851
REMARK UNBOUND:                -0.927
REMARK  Name = 17j.sdf
REMARK  8 active torsions:
REMARK  status: ('A' for Active; 'I' for Inactive)
REMARK    1  A    between atoms: N_7  and  C_16
REMARK    2  A    between atoms: C_9  and  C_10
REMARK    3  A    between atoms: N_11  and  N_12
REMARK    4  A    between atoms: C_16  and  C_17
REMARK    5  A    between atoms: C_19  and  O_23
REMARK    6  A    between atoms: C_21  and  O_25
REMARK    7  A    between atoms: O_23  and  C_24
REMARK    8  A    between atoms: O_25  and  C_26
REMARK                            x       y       z     vdW  Elec       q    Type
REMARK                         _______ _______ _______ _____ _____    ______ ____
ROOT
ATOM      1  C   UNL     1     106.435  25.164  35.970  0.00  0.00    -0.061 A 
ATOM      2  C   UNL     1     107.510  24.287  35.877  0.00  0.00    -0.060 A 
ATOM      3  C   UNL     1     107.800  23.629  34.677  0.00  0.00    -0.038 A 
ATOM      4  C   UNL     1     106.973  23.874  33.569  0.00  0.00    +0.050 A 
ATOM      5  C   UNL     1     105.911  24.786  33.627  0.00  0.00    +0.009 A 
ATOM      6  C   UNL     1     105.638  25.431  34.854  0.00  0.00    -0.052 A 
ATOM      7  N   UNL     1     106.984  23.349  32.291  0.00  0.00    -0.342 N 
ATOM      8  C   UNL     1     106.011  23.950  31.533  0.00  0.00    +0.015 A 
ATOM      9  C   UNL     1     105.326  24.854  32.323  0.00  0.00    +0.020 A 
ENDROOT
BRANCH   9  10
ATOM     10  C   UNL     1     104.236  25.701  31.887  0.00  0.00    +0.055 C 
ATOM     11  N   UNL     1     103.042  25.465  32.326  0.00  0.00    -0.186 NA
BRANCH  11  12
ATOM     12  N   UNL     1     102.068  26.301  31.851  0.00  0.00    -0.191 N 
ATOM     13  C   UNL     1     101.211  26.959  32.697  0.00  0.00    +0.317 C 
ATOM     14  O   UNL     1     100.342  27.729  32.304  0.00  0.00    -0.251 OA
ATOM     15  N   UNL     1     101.417  26.691  34.010  0.00  0.00    -0.312 N 
ATOM     16  H   UNL     1     101.981  26.433  30.879  0.00  0.00    +0.000 HD
ATOM     17  H   UNL     1     102.127  26.065  34.279  0.00  0.00    +0.000 HD
ATOM     18  H   UNL     1     100.856  27.122  34.695  0.00  0.00    +0.000 HD
ENDBRANCH  11  12
ENDBRANCH   9  10
BRANCH   7  19
ATOM     19  C   UNL     1     107.850  22.274  31.804  0.00  0.00    +0.049 C 
BRANCH  19  20
ATOM     20  C   UNL     1     108.490  22.532  30.457  0.00  0.00    -0.021 A 
ATOM     21  C   UNL     1     108.244  21.742  29.325  0.00  0.00    -0.015 A 
ATOM     22  C   UNL     1     108.926  21.969  28.128  0.00  0.00    +0.124 A 
ATOM     23  C   UNL     1     109.828  23.032  28.036  0.00  0.00    +0.022 A 
ATOM     24  C   UNL     1     110.056  23.862  29.132  0.00  0.00    +0.124 A 
ATOM     25  C   UNL     1     109.387  23.607  30.333  0.00  0.00    -0.015 A 
BRANCH  22  26
ATOM     26  O   UNL     1     108.803  21.218  26.990  0.00  0.00    -0.495 OA
ATOM     27  C   UNL     1     109.777  21.436  25.975  0.00  0.00    +0.079 C 
ENDBRANCH  22  26
BRANCH  24  28
ATOM     28  O   UNL     1     110.901  24.939  29.161  0.00  0.00    -0.495 OA
ATOM     29  C   UNL     1     110.893  25.791  28.020  0.00  0.00    +0.079 C 
ENDBRANCH  24  28
ENDBRANCH  19  20
ENDBRANCH   7  19
TORSDOF 6
ENDMDL
