MODEL 1
REMARK VINA RESULT:    -9.859      0.000      0.000
REMARK INTER + INTRA:         -13.006
REMARK INTER:                 -12.741
REMARK INTRA:                  -0.265
REMARK UNBOUND:                -0.265
REMARK  Name = 18a.sdf
REMARK  5 active torsions:
REMARK  status: ('A' for Active; 'I' for Inactive)
REMARK    1  A    between atoms: N_7  and  C_12
REMARK    2  A    between atoms: C_9  and  C_10
REMARK    3  A    between atoms: N_11  and  N_19
REMARK    4  A    between atoms: C_12  and  C_13
REMARK    5  A    between atoms: C_20  and  C_22
REMARK                            x       y       z     vdW  Elec       q    Type
REMARK                         _______ _______ _______ _____ _____    ______ ____
ROOT
ATOM      1  C   UNL     1     107.138  26.320  34.512  0.00  0.00    -0.061 A 
ATOM      2  C   UNL     1     108.293  25.647  34.131  0.00  0.00    -0.060 A 
ATOM      3  C   UNL     1     108.252  24.635  33.165  0.00  0.00    -0.038 A 
ATOM      4  C   UNL     1     107.013  24.311  32.586  0.00  0.00    +0.050 A 
ATOM      5  C   UNL     1     105.848  25.016  32.916  0.00  0.00    +0.009 A 
ATOM      6  C   UNL     1     105.916  26.023  33.902  0.00  0.00    -0.052 A 
ATOM      7  N   UNL     1     106.649  23.334  31.675  0.00  0.00    -0.342 N 
ATOM      8  C   UNL     1     105.317  23.467  31.363  0.00  0.00    +0.015 A 
ATOM      9  C   UNL     1     104.789  24.508  32.099  0.00  0.00    +0.020 A 
ENDROOT
BRANCH   9  10
ATOM     10  C   UNL     1     103.421  24.982  32.052  0.00  0.00    +0.055 C 
ATOM     11  N   UNL     1     103.170  26.240  32.239  0.00  0.00    -0.187 NA
BRANCH  11  12
ATOM     12  N   UNL     1     101.852  26.600  32.190  0.00  0.00    -0.203 N 
ATOM     13  C   UNL     1     101.082  26.529  33.343  0.00  0.00    +0.263 C 
ATOM     14  O   UNL     1     101.492  26.174  34.442  0.00  0.00    -0.268 OA
ATOM     15  H   UNL     1     101.452  26.908  31.344  0.00  0.00    +0.000 HD
BRANCH  13  16
ATOM     16  C   UNL     1      99.659  26.960  33.204  0.00  0.00    +0.038 A 
ATOM     17  C   UNL     1      99.291  28.132  32.527  0.00  0.00    -0.050 A 
ATOM     18  C   UNL     1      97.936  28.480  32.424  0.00  0.00    -0.061 A 
ATOM     19  C   UNL     1      96.955  27.662  32.986  0.00  0.00    -0.062 A 
ATOM     20  C   UNL     1      97.318  26.487  33.641  0.00  0.00    -0.061 A 
ATOM     21  C   UNL     1      98.667  26.136  33.746  0.00  0.00    -0.050 A 
ENDBRANCH  13  16
ENDBRANCH  11  12
ENDBRANCH   9  10
BRANCH   7  22
ATOM     22  C   UNL     1     107.483  22.231  31.194  0.00  0.00    +0.048 C 
BRANCH  22  23
ATOM     23  C   UNL     1     108.413  22.671  30.090  0.00  0.00    -0.028 A 
ATOM     24  C   UNL     1     108.261  22.169  28.790  0.00  0.00    -0.056 A 
ATOM     25  C   UNL     1     109.211  22.446  27.807  0.00  0.00    -0.047 A 
ATOM     26  C   UNL     1     110.309  23.244  28.113  0.00  0.00    +0.018 A 
ATOM     27  C   UNL     1     110.434  23.820  29.374  0.00  0.00    -0.047 A 
ATOM     28  C   UNL     1     109.486  23.536  30.361  0.00  0.00    -0.056 A 
ATOM     29 BR   UNL     1     111.668  23.503  26.824  0.00  0.00    -0.050 Br
ENDBRANCH  22  23
ENDBRANCH   7  22
TORSDOF 5
ENDMDL
MODEL 2
REMARK VINA RESULT:    -9.393      3.918      9.612
REMARK INTER + INTRA:         -12.404
REMARK INTER:                 -11.666
REMARK INTRA:                  -0.738
REMARK UNBOUND:                -0.265
REMARK  Name = 18a.sdf
REMARK  5 active torsions:
REMARK  status: ('A' for Active; 'I' for Inactive)
REMARK    1  A    between atoms: N_7  and  C_12
REMARK    2  A    between atoms: C_9  and  C_10
REMARK    3  A    between atoms: N_11  and  N_19
REMARK    4  A    between atoms: C_12  and  C_13
REMARK    5  A    between atoms: C_20  and  C_22
REMARK                            x       y       z     vdW  Elec       q    Type
REMARK                         _______ _______ _______ _____ _____    ______ ____
ROOT
ATOM      1  C   UNL     1     107.622  23.906  35.653  0.00  0.00    -0.061 A 
ATOM      2  C   UNL     1     106.795  24.842  36.262  0.00  0.00    -0.060 A 
ATOM      3  C   UNL     1     105.870  25.581  35.515  0.00  0.00    -0.038 A 
ATOM      4  C   UNL     1     105.794  25.354  34.129  0.00  0.00    +0.050 A 
ATOM      5  C   UNL     1     106.579  24.374  33.507  0.00  0.00    +0.009 A 
ATOM      6  C   UNL     1     107.512  23.653  34.283  0.00  0.00    -0.052 A 
ATOM      7  N   UNL     1     105.045  25.962  33.135  0.00  0.00    -0.342 N 
ATOM      8  C   UNL     1     105.274  25.332  31.935  0.00  0.00    +0.015 A 
ATOM      9  C   UNL     1     106.206  24.333  32.127  0.00  0.00    +0.020 A 
ENDROOT
BRANCH   9  10
ATOM     10  C   UNL     1     106.710  23.427  31.115  0.00  0.00    +0.055 C 
ATOM     11  N   UNL     1     107.963  23.463  30.786  0.00  0.00    -0.187 NA
BRANCH  11  12
ATOM     12  N   UNL     1     108.352  22.583  29.814  0.00  0.00    -0.203 N 
ATOM     13  C   UNL     1     109.562  22.777  29.163  0.00  0.00    +0.263 C 
ATOM     14  O   UNL     1     110.349  23.688  29.397  0.00  0.00    -0.268 OA
ATOM     15  H   UNL     1     107.777  21.818  29.578  0.00  0.00    +0.000 HD
BRANCH  13  16
ATOM     16  C   UNL     1     109.918  21.758  28.131  0.00  0.00    +0.038 A 
ATOM     17  C   UNL     1     110.633  20.592  28.441  0.00  0.00    -0.050 A 
ATOM     18  C   UNL     1     110.931  19.669  27.427  0.00  0.00    -0.061 A 
ATOM     19  C   UNL     1     110.511  19.902  26.118  0.00  0.00    -0.062 A 
ATOM     20  C   UNL     1     109.782  21.050  25.812  0.00  0.00    -0.061 A 
ATOM     21  C   UNL     1     109.484  21.973  26.818  0.00  0.00    -0.050 A 
ENDBRANCH  13  16
ENDBRANCH  11  12
ENDBRANCH   9  10
BRANCH   7  22
ATOM     22  C   UNL     1     104.228  27.169  33.270  0.00  0.00    +0.048 C 
BRANCH  22  23
ATOM     23  C   UNL     1     102.756  26.870  33.125  0.00  0.00    -0.028 A 
ATOM     24  C   UNL     1     102.131  26.969  31.874  0.00  0.00    -0.056 A 
ATOM     25  C   UNL     1     100.745  26.852  31.763  0.00  0.00    -0.047 A 
ATOM     26  C   UNL     1      99.979  26.613  32.900  0.00  0.00    +0.018 A 
ATOM     27  C   UNL     1     100.590  26.428  34.137  0.00  0.00    -0.047 A 
ATOM     28  C   UNL     1     101.977  26.554  34.249  0.00  0.00    -0.056 A 
ATOM     29 BR   UNL     1      98.093  26.595  32.772  0.00  0.00    -0.050 Br
ENDBRANCH  22  23
ENDBRANCH   7  22
TORSDOF 5
ENDMDL
MODEL 3
REMARK VINA RESULT:    -9.344      2.879      3.948
REMARK INTER + INTRA:         -12.341
REMARK INTER:                 -11.606
REMARK INTRA:                  -0.735
REMARK UNBOUND:                -0.265
REMARK  Name = 18a.sdf
REMARK  5 active torsions:
REMARK  status: ('A' for Active; 'I' for Inactive)
REMARK    1  A    between atoms: N_7  and  C_12
REMARK    2  A    between atoms: C_9  and  C_10
REMARK    3  A    between atoms: N_11  and  N_19
REMARK    4  A    between atoms: C_12  and  C_13
REMARK    5  A    between atoms: C_20  and  C_22
REMARK                            x       y       z     vdW  Elec       q    Type
REMARK                         _______ _______ _______ _____ _____    ______ ____
ROOT
ATOM      1  C   UNL     1     110.046  21.912  35.110  0.00  0.00    -0.061 A 
ATOM      2  C   UNL     1     111.178  21.684  34.338  0.00  0.00    -0.060 A 
ATOM      3  C   UNL     1     111.216  22.052  32.988  0.00  0.00    -0.038 A 
ATOM      4  C   UNL     1     110.080  22.659  32.427  0.00  0.00    +0.050 A 
ATOM      5  C   UNL     1     108.949  22.948  33.203  0.00  0.00    +0.009 A 
ATOM      6  C   UNL     1     108.934  22.555  34.559  0.00  0.00    -0.052 A 
ATOM      7  N   UNL     1     109.794  23.064  31.133  0.00  0.00    -0.342 N 
ATOM      8  C   UNL     1     108.564  23.674  31.102  0.00  0.00    +0.015 A 
ATOM      9  C   UNL     1     108.015  23.637  32.368  0.00  0.00    +0.020 A 
ENDROOT
BRANCH   9  10
ATOM     10  C   UNL     1     106.733  24.186  32.761  0.00  0.00    +0.055 C 
ATOM     11  N   UNL     1     105.756  24.208  31.911  0.00  0.00    -0.187 NA
BRANCH  11  12
ATOM     12  N   UNL     1     104.585  24.755  32.360  0.00  0.00    -0.203 N 
ATOM     13  C   UNL     1     103.808  25.510  31.493  0.00  0.00    +0.263 C 
ATOM     14  O   UNL     1     104.076  25.727  30.316  0.00  0.00    -0.268 OA
ATOM     15  H   UNL     1     104.296  24.614  33.291  0.00  0.00    +0.000 HD
BRANCH  13  16
ATOM     16  C   UNL     1     102.537  26.051  32.060  0.00  0.00    +0.038 A 
ATOM     17  C   UNL     1     101.517  26.575  31.253  0.00  0.00    -0.050 A 
ATOM     18  C   UNL     1     100.342  27.062  31.846  0.00  0.00    -0.061 A 
ATOM     19  C   UNL     1     100.184  27.019  33.231  0.00  0.00    -0.062 A 
ATOM     20  C   UNL     1     101.188  26.479  34.033  0.00  0.00    -0.061 A 
ATOM     21  C   UNL     1     102.360  25.993  33.447  0.00  0.00    -0.050 A 
ENDBRANCH  13  16
ENDBRANCH  11  12
ENDBRANCH   9  10
BRANCH   7  22
ATOM     22  C   UNL     1     110.589  22.788  29.935  0.00  0.00    +0.048 C 
BRANCH  22  23
ATOM     23  C   UNL     1     110.592  21.320  29.589  0.00  0.00    -0.028 A 
ATOM     24  C   UNL     1     111.628  20.487  30.036  0.00  0.00    -0.056 A 
ATOM     25  C   UNL     1     111.722  19.169  29.587  0.00  0.00    -0.047 A 
ATOM     26  C   UNL     1     110.768  18.670  28.705  0.00  0.00    +0.018 A 
ATOM     27  C   UNL     1     109.686  19.456  28.316  0.00  0.00    -0.047 A 
ATOM     28  C   UNL     1     109.598  20.778  28.759  0.00  0.00    -0.056 A 
ATOM     29 BR   UNL     1     110.974  16.933  27.987  0.00  0.00    -0.050 Br
ENDBRANCH  22  23
ENDBRANCH   7  22
TORSDOF 5
ENDMDL
