MODEL 1
REMARK VINA RESULT:   -11.420      0.000      0.000
REMARK INTER + INTRA:         -14.632
REMARK INTER:                 -14.090
REMARK INTRA:                  -0.541
REMARK UNBOUND:                -0.541
REMARK  Name = 18d.sdf
REMARK  4 active torsions:
REMARK  status: ('A' for Active; 'I' for Inactive)
REMARK    1  A    between atoms: C_9  and  C_10
REMARK    2  A    between atoms: N_11  and  N_12
REMARK    3  A    between atoms: C_13  and  C_15
REMARK    4  A    between atoms: C_16  and  C_17
REMARK                            x       y       z     vdW  Elec       q    Type
REMARK                         _______ _______ _______ _____ _____    ______ ____
ROOT
ATOM      1  C   UNL     1     109.845  22.196  35.852  0.00  0.00    -0.061 A 
ATOM      2  C   UNL     1     110.857  21.677  35.056  0.00  0.00    -0.060 A 
ATOM      3  C   UNL     1     110.837  21.848  33.668  0.00  0.00    -0.037 A 
ATOM      4  C   UNL     1     109.759  22.544  33.090  0.00  0.00    +0.057 A 
ATOM      5  C   UNL     1     108.735  23.092  33.878  0.00  0.00    +0.009 A 
ATOM      6  C   UNL     1     108.785  22.906  35.278  0.00  0.00    -0.052 A 
ATOM      7  N   UNL     1     109.490  22.864  31.757  0.00  0.00    -0.282 N 
ATOM      8  C   UNL     1     108.298  23.567  31.729  0.00  0.00    +0.023 A 
ATOM      9  C   UNL     1     107.812  23.747  33.008  0.00  0.00    +0.020 A 
ATOM     10  C   UNL     1     110.262  22.538  30.613  0.00  0.00    +0.263 C 
ATOM     11  O   UNL     1     110.904  21.482  30.627  0.00  0.00    -0.267 OA
ENDROOT
BRANCH  10  12
ATOM     12  C   UNL     1     110.286  23.377  29.393  0.00  0.00    +0.040 A 
ATOM     13  C   UNL     1     110.057  22.803  28.135  0.00  0.00    -0.049 A 
ATOM     14  C   UNL     1     110.255  23.560  26.985  0.00  0.00    -0.061 A 
ATOM     15  C   UNL     1     110.628  24.899  27.089  0.00  0.00    -0.062 A 
ATOM     16  C   UNL     1     110.769  25.496  28.344  0.00  0.00    -0.061 A 
ATOM     17  C   UNL     1     110.590  24.739  29.500  0.00  0.00    -0.049 A 
ENDBRANCH  10  12
BRANCH   9  18
ATOM     18  C   UNL     1     106.590  24.460  33.339  0.00  0.00    +0.055 C 
ATOM     19  N   UNL     1     105.684  24.613  32.427  0.00  0.00    -0.187 NA
BRANCH  19  20
ATOM     20  N   UNL     1     104.550  25.297  32.778  0.00  0.00    -0.203 N 
ATOM     21  C   UNL     1     103.772  25.879  31.785  0.00  0.00    +0.263 C 
ATOM     22  O   UNL     1     104.013  25.839  30.578  0.00  0.00    -0.268 OA
ATOM     23  H   UNL     1     104.289  25.373  33.724  0.00  0.00    +0.000 HD
BRANCH  21  24
ATOM     24  C   UNL     1     102.535  26.571  32.247  0.00  0.00    +0.038 A 
ATOM     25  C   UNL     1     101.353  26.563  31.494  0.00  0.00    -0.050 A 
ATOM     26  C   UNL     1     100.225  27.247  31.958  0.00  0.00    -0.061 A 
ATOM     27  C   UNL     1     100.267  27.925  33.177  0.00  0.00    -0.062 A 
ATOM     28  C   UNL     1     101.428  27.904  33.948  0.00  0.00    -0.061 A 
ATOM     29  C   UNL     1     102.558  27.226  33.488  0.00  0.00    -0.050 A 
ENDBRANCH  21  24
ENDBRANCH  19  20
ENDBRANCH   9  18
TORSDOF 4
ENDMDL
MODEL 2
REMARK VINA RESULT:    -9.255      1.923      8.445
REMARK INTER + INTRA:         -11.961
REMARK INTER:                 -11.904
REMARK INTRA:                  -0.057
REMARK UNBOUND:                -0.541
REMARK  Name = 18d.sdf
REMARK  4 active torsions:
REMARK  status: ('A' for Active; 'I' for Inactive)
REMARK    1  A    between atoms: C_9  and  C_10
REMARK    2  A    between atoms: N_11  and  N_12
REMARK    3  A    between atoms: C_13  and  C_15
REMARK    4  A    between atoms: C_16  and  C_17
REMARK                            x       y       z     vdW  Elec       q    Type
REMARK                         _______ _______ _______ _____ _____    ______ ____
ROOT
ATOM      1  C   UNL     1     108.231  23.738  35.624  0.00  0.00    -0.061 A 
ATOM      2  C   UNL     1     107.403  24.630  36.292  0.00  0.00    -0.060 A 
ATOM      3  C   UNL     1     106.349  25.266  35.628  0.00  0.00    -0.037 A 
ATOM      4  C   UNL     1     106.153  24.997  34.260  0.00  0.00    +0.057 A 
ATOM      5  C   UNL     1     106.968  24.086  33.570  0.00  0.00    +0.009 A 
ATOM      6  C   UNL     1     108.022  23.456  34.269  0.00  0.00    -0.052 A 
ATOM      7  N   UNL     1     105.193  25.475  33.365  0.00  0.00    -0.282 N 
ATOM      8  C   UNL     1     105.442  24.891  32.135  0.00  0.00    +0.023 A 
ATOM      9  C   UNL     1     106.507  24.017  32.220  0.00  0.00    +0.020 A 
ATOM     10  C   UNL     1     104.148  26.398  33.624  0.00  0.00    +0.263 C 
ATOM     11  O   UNL     1     104.344  27.274  34.473  0.00  0.00    -0.267 OA
ENDROOT
BRANCH  10  12
ATOM     12  C   UNL     1     102.865  26.387  32.886  0.00  0.00    +0.040 A 
ATOM     13  C   UNL     1     102.849  26.217  31.494  0.00  0.00    -0.049 A 
ATOM     14  C   UNL     1     101.661  26.384  30.791  0.00  0.00    -0.061 A 
ATOM     15  C   UNL     1     100.481  26.667  31.477  0.00  0.00    -0.062 A 
ATOM     16  C   UNL     1     100.478  26.749  32.871  0.00  0.00    -0.061 A 
ATOM     17  C   UNL     1     101.669  26.600  33.581  0.00  0.00    -0.049 A 
ENDBRANCH  10  12
BRANCH   9  18
ATOM     18  C   UNL     1     107.020  23.222  31.117  0.00  0.00    +0.055 C 
ATOM     19  N   UNL     1     108.170  23.523  30.607  0.00  0.00    -0.187 NA
BRANCH  19  20
ATOM     20  N   UNL     1     108.615  22.754  29.565  0.00  0.00    -0.203 N 
ATOM     21  C   UNL     1     109.818  23.073  28.947  0.00  0.00    +0.263 C 
ATOM     22  O   UNL     1     110.548  24.015  29.257  0.00  0.00    -0.268 OA
ATOM     23  H   UNL     1     108.087  21.982  29.258  0.00  0.00    +0.000 HD
BRANCH  21  24
ATOM     24  C   UNL     1     110.248  22.164  27.847  0.00  0.00    +0.038 A 
ATOM     25  C   UNL     1     109.333  21.388  27.124  0.00  0.00    -0.050 A 
ATOM     26  C   UNL     1     109.786  20.531  26.116  0.00  0.00    -0.061 A 
ATOM     27  C   UNL     1     111.147  20.457  25.818  0.00  0.00    -0.062 A 
ATOM     28  C   UNL     1     112.058  21.255  26.508  0.00  0.00    -0.061 A 
ATOM     29  C   UNL     1     111.611  22.109  27.517  0.00  0.00    -0.050 A 
ENDBRANCH  21  24
ENDBRANCH  19  20
ENDBRANCH   9  18
TORSDOF 4
ENDMDL
