MODEL 1
REMARK VINA RESULT:    -8.738      0.000      0.000
REMARK INTER + INTRA:         -10.548
REMARK INTER:                 -10.270
REMARK INTRA:                  -0.277
REMARK UNBOUND:                -0.277
REMARK  Name = 1a.sdf
REMARK  3 active torsions:
REMARK  status: ('A' for Active; 'I' for Inactive)
REMARK    1  A    between atoms: N_7  and  C_12
REMARK    2  A    between atoms: C_9  and  C_10
REMARK    3  A    between atoms: C_12  and  C_13
REMARK                            x       y       z     vdW  Elec       q    Type
REMARK                         _______ _______ _______ _____ _____    ______ ____
ROOT
ATOM      1  C   UNL     1     100.310  27.298  32.121  0.00  0.00    -0.061 A 
ATOM      2  C   UNL     1     100.763  27.801  33.335  0.00  0.00    -0.060 A 
ATOM      3  C   UNL     1     102.060  27.534  33.784  0.00  0.00    -0.038 A 
ATOM      4  C   UNL     1     102.900  26.751  32.974  0.00  0.00    +0.050 A 
ATOM      5  C   UNL     1     102.479  26.269  31.728  0.00  0.00    +0.010 A 
ATOM      6  C   UNL     1     101.157  26.540  31.307  0.00  0.00    -0.052 A 
ATOM      7  N   UNL     1     104.191  26.293  33.168  0.00  0.00    -0.342 N 
ATOM      8  C   UNL     1     104.612  25.604  32.057  0.00  0.00    +0.016 A 
ATOM      9  C   UNL     1     103.578  25.566  31.145  0.00  0.00    +0.039 A 
ENDROOT
BRANCH   9  10
ATOM     10  C   UNL     1     103.633  24.921  29.847  0.00  0.00    +0.152 C 
ATOM     11  O   UNL     1     103.992  23.760  29.669  0.00  0.00    -0.296 OA
ENDBRANCH   9  10
BRANCH   7  12
ATOM     12  C   UNL     1     104.973  26.400  34.399  0.00  0.00    +0.048 C 
BRANCH  12  13
ATOM     13  C   UNL     1     106.044  25.340  34.475  0.00  0.00    -0.028 A 
ATOM     14  C   UNL     1     105.741  24.056  34.953  0.00  0.00    -0.056 A 
ATOM     15  C   UNL     1     106.749  23.106  35.124  0.00  0.00    -0.047 A 
ATOM     16  C   UNL     1     108.065  23.431  34.805  0.00  0.00    +0.018 A 
ATOM     17  C   UNL     1     108.377  24.683  34.282  0.00  0.00    -0.047 A 
ATOM     18  C   UNL     1     107.367  25.634  34.115  0.00  0.00    -0.056 A 
ATOM     19 BR   UNL     1     109.442  22.173  35.118  0.00  0.00    -0.050 Br
ENDBRANCH  12  13
ENDBRANCH   7  12
TORSDOF 3
ENDMDL
MODEL 2
REMARK VINA RESULT:    -8.228      3.295      6.095
REMARK INTER + INTRA:          -9.948
REMARK INTER:                  -9.356
REMARK INTRA:                  -0.593
REMARK UNBOUND:                -0.277
REMARK  Name = 1a.sdf
REMARK  3 active torsions:
REMARK  status: ('A' for Active; 'I' for Inactive)
REMARK    1  A    between atoms: N_7  and  C_12
REMARK    2  A    between atoms: C_9  and  C_10
REMARK    3  A    between atoms: C_12  and  C_13
REMARK                            x       y       z     vdW  Elec       q    Type
REMARK                         _______ _______ _______ _____ _____    ______ ____
ROOT
ATOM      1  C   UNL     1     107.380  24.033  35.518  0.00  0.00    -0.061 A 
ATOM      2  C   UNL     1     106.708  25.228  35.748  0.00  0.00    -0.060 A 
ATOM      3  C   UNL     1     105.848  25.767  34.785  0.00  0.00    -0.038 A 
ATOM      4  C   UNL     1     105.672  25.065  33.580  0.00  0.00    +0.050 A 
ATOM      5  C   UNL     1     106.305  23.838  33.344  0.00  0.00    +0.010 A 
ATOM      6  C   UNL     1     107.182  23.327  34.328  0.00  0.00    -0.052 A 
ATOM      7  N   UNL     1     104.936  25.364  32.447  0.00  0.00    -0.342 N 
ATOM      8  C   UNL     1     105.033  24.332  31.546  0.00  0.00    +0.016 A 
ATOM      9  C   UNL     1     105.875  23.371  32.065  0.00  0.00    +0.039 A 
ENDROOT
BRANCH   9  10
ATOM     10  C   UNL     1     106.234  22.131  31.404  0.00  0.00    +0.152 C 
ATOM     11  O   UNL     1     107.220  21.993  30.685  0.00  0.00    -0.296 OA
ENDBRANCH   9  10
BRANCH   7  12
ATOM     12  C   UNL     1     104.249  26.624  32.166  0.00  0.00    +0.048 C 
BRANCH  12  13
ATOM     13  C   UNL     1     102.775  26.538  32.471  0.00  0.00    -0.028 A 
ATOM     14  C   UNL     1     101.829  26.606  31.437  0.00  0.00    -0.056 A 
ATOM     15  C   UNL     1     100.464  26.632  31.725  0.00  0.00    -0.047 A 
ATOM     16  C   UNL     1     100.036  26.578  33.049  0.00  0.00    +0.018 A 
ATOM     17  C   UNL     1     100.958  26.459  34.085  0.00  0.00    -0.047 A 
ATOM     18  C   UNL     1     102.325  26.436  33.796  0.00  0.00    -0.056 A 
ATOM     19 BR   UNL     1      98.190  26.701  33.442  0.00  0.00    -0.050 Br
ENDBRANCH  12  13
ENDBRANCH   7  12
TORSDOF 3
ENDMDL
MODEL 3
REMARK VINA RESULT:    -7.608      4.006      5.420
REMARK INTER + INTRA:          -9.220
REMARK INTER:                  -8.607
REMARK INTRA:                  -0.613
REMARK UNBOUND:                -0.277
REMARK  Name = 1a.sdf
REMARK  3 active torsions:
REMARK  status: ('A' for Active; 'I' for Inactive)
REMARK    1  A    between atoms: N_7  and  C_12
REMARK    2  A    between atoms: C_9  and  C_10
REMARK    3  A    between atoms: C_12  and  C_13
REMARK                            x       y       z     vdW  Elec       q    Type
REMARK                         _______ _______ _______ _____ _____    ______ ____
ROOT
ATOM      1  C   UNL     1     106.335  26.330  34.669  0.00  0.00    -0.061 A 
ATOM      2  C   UNL     1     107.503  25.577  34.633  0.00  0.00    -0.060 A 
ATOM      3  C   UNL     1     107.692  24.592  33.658  0.00  0.00    -0.038 A 
ATOM      4  C   UNL     1     106.677  24.387  32.708  0.00  0.00    +0.050 A 
ATOM      5  C   UNL     1     105.511  25.164  32.700  0.00  0.00    +0.010 A 
ATOM      6  C   UNL     1     105.339  26.140  33.708  0.00  0.00    -0.052 A 
ATOM      7  N   UNL     1     106.563  23.476  31.673  0.00  0.00    -0.342 N 
ATOM      8  C   UNL     1     105.400  23.706  30.979  0.00  0.00    +0.016 A 
ATOM      9  C   UNL     1     104.721  24.742  31.587  0.00  0.00    +0.039 A 
ENDROOT
BRANCH   9  10
ATOM     10  C   UNL     1     103.444  25.273  31.150  0.00  0.00    +0.152 C 
ATOM     11  O   UNL     1     103.320  26.223  30.381  0.00  0.00    -0.296 OA
ENDBRANCH   9  10
BRANCH   7  12
ATOM     12  C   UNL     1     107.457  22.352  31.404  0.00  0.00    +0.048 C 
BRANCH  12  13
ATOM     13  C   UNL     1     108.422  22.659  30.287  0.00  0.00    -0.028 A 
ATOM     14  C   UNL     1     108.340  21.971  29.067  0.00  0.00    -0.056 A 
ATOM     15  C   UNL     1     109.294  22.177  28.070  0.00  0.00    -0.047 A 
ATOM     16  C   UNL     1     110.330  23.084  28.282  0.00  0.00    +0.018 A 
ATOM     17  C   UNL     1     110.399  23.813  29.466  0.00  0.00    -0.047 A 
ATOM     18  C   UNL     1     109.445  23.603  30.465  0.00  0.00    -0.056 A 
ATOM     19 BR   UNL     1     111.670  23.299  26.966  0.00  0.00    -0.050 Br
ENDBRANCH  12  13
ENDBRANCH   7  12
TORSDOF 3
ENDMDL
