MODEL 1
REMARK VINA RESULT:    -8.657      0.000      0.000
REMARK INTER + INTRA:         -10.455
REMARK INTER:                 -10.176
REMARK INTRA:                  -0.279
REMARK UNBOUND:                -0.279
REMARK  Name = 1c.sdf
REMARK  3 active torsions:
REMARK  status: ('A' for Active; 'I' for Inactive)
REMARK    1  A    between atoms: N_7  and  C_12
REMARK    2  A    between atoms: C_9  and  C_10
REMARK    3  A    between atoms: C_12  and  C_13
REMARK                            x       y       z     vdW  Elec       q    Type
REMARK                         _______ _______ _______ _____ _____    ______ ____
ROOT
ATOM      1  C   UNL     1     100.257  27.269  32.224  0.00  0.00    -0.061 A 
ATOM      2  C   UNL     1     100.755  27.782  33.417  0.00  0.00    -0.060 A 
ATOM      3  C   UNL     1     102.084  27.558  33.809  0.00  0.00    -0.038 A 
ATOM      4  C   UNL     1     102.905  26.771  32.984  0.00  0.00    +0.050 A 
ATOM      5  C   UNL     1     102.438  26.298  31.746  0.00  0.00    +0.010 A 
ATOM      6  C   UNL     1     101.099  26.549  31.373  0.00  0.00    -0.052 A 
ATOM      7  N   UNL     1     104.200  26.289  33.136  0.00  0.00    -0.342 N 
ATOM      8  C   UNL     1     104.577  25.628  31.989  0.00  0.00    +0.016 A 
ATOM      9  C   UNL     1     103.514  25.623  31.111  0.00  0.00    +0.039 A 
ENDROOT
BRANCH   9  10
ATOM     10  C   UNL     1     103.522  25.015  29.790  0.00  0.00    +0.152 C 
ATOM     11  O   UNL     1     104.118  23.981  29.520  0.00  0.00    -0.296 OA
ENDBRANCH   9  10
BRANCH   7  12
ATOM     12  C   UNL     1     105.027  26.292  34.347  0.00  0.00    +0.048 C 
BRANCH  12  13
ATOM     13  C   UNL     1     106.031  25.165  34.359  0.00  0.00    -0.028 A 
ATOM     14  C   UNL     1     105.668  23.909  34.861  0.00  0.00    -0.055 A 
ATOM     15  C   UNL     1     106.636  22.927  35.081  0.00  0.00    -0.043 A 
ATOM     16  C   UNL     1     107.967  23.183  34.761  0.00  0.00    +0.041 A 
ATOM     17  C   UNL     1     108.326  24.383  34.151  0.00  0.00    -0.043 A 
ATOM     18  C   UNL     1     107.358  25.372  33.946  0.00  0.00    -0.055 A 
ATOM     19 CL   UNL     1     109.180  22.037  35.177  0.00  0.00    -0.084 Cl
ENDBRANCH  12  13
ENDBRANCH   7  12
TORSDOF 3
ENDMDL
MODEL 2
REMARK VINA RESULT:    -8.266      3.256      6.117
REMARK INTER + INTRA:          -9.995
REMARK INTER:                  -9.459
REMARK INTRA:                  -0.536
REMARK UNBOUND:                -0.279
REMARK  Name = 1c.sdf
REMARK  3 active torsions:
REMARK  status: ('A' for Active; 'I' for Inactive)
REMARK    1  A    between atoms: N_7  and  C_12
REMARK    2  A    between atoms: C_9  and  C_10
REMARK    3  A    between atoms: C_12  and  C_13
REMARK                            x       y       z     vdW  Elec       q    Type
REMARK                         _______ _______ _______ _____ _____    ______ ____
ROOT
ATOM      1  C   UNL     1     107.396  24.095  35.465  0.00  0.00    -0.061 A 
ATOM      2  C   UNL     1     106.625  25.228  35.700  0.00  0.00    -0.060 A 
ATOM      3  C   UNL     1     105.702  25.692  34.751  0.00  0.00    -0.038 A 
ATOM      4  C   UNL     1     105.589  25.005  33.530  0.00  0.00    +0.050 A 
ATOM      5  C   UNL     1     106.313  23.823  33.301  0.00  0.00    +0.010 A 
ATOM      6  C   UNL     1     107.227  23.373  34.281  0.00  0.00    -0.052 A 
ATOM      7  N   UNL     1     104.865  25.262  32.372  0.00  0.00    -0.342 N 
ATOM      8  C   UNL     1     105.039  24.224  31.485  0.00  0.00    +0.016 A 
ATOM      9  C   UNL     1     105.921  23.317  32.033  0.00  0.00    +0.039 A 
ENDROOT
BRANCH   9  10
ATOM     10  C   UNL     1     106.361  22.087  31.396  0.00  0.00    +0.152 C 
ATOM     11  O   UNL     1     107.155  22.049  30.465  0.00  0.00    -0.296 OA
ENDBRANCH   9  10
BRANCH   7  12
ATOM     12  C   UNL     1     104.151  26.492  32.010  0.00  0.00    +0.048 C 
BRANCH  12  13
ATOM     13  C   UNL     1     102.679  26.417  32.337  0.00  0.00    -0.028 A 
ATOM     14  C   UNL     1     101.728  26.586  31.323  0.00  0.00    -0.055 A 
ATOM     15  C   UNL     1     100.376  26.737  31.638  0.00  0.00    -0.043 A 
ATOM     16  C   UNL     1      99.965  26.680  32.967  0.00  0.00    +0.041 A 
ATOM     17  C   UNL     1     100.881  26.394  33.976  0.00  0.00    -0.043 A 
ATOM     18  C   UNL     1     102.237  26.259  33.661  0.00  0.00    -0.055 A 
ATOM     19 CL   UNL     1      98.328  27.023  33.368  0.00  0.00    -0.084 Cl
ENDBRANCH  12  13
ENDBRANCH   7  12
TORSDOF 3
ENDMDL
MODEL 3
REMARK VINA RESULT:    -8.089      1.584      2.861
REMARK INTER + INTRA:          -9.786
REMARK INTER:                  -9.421
REMARK INTRA:                  -0.366
REMARK UNBOUND:                -0.279
REMARK  Name = 1c.sdf
REMARK  3 active torsions:
REMARK  status: ('A' for Active; 'I' for Inactive)
REMARK    1  A    between atoms: N_7  and  C_12
REMARK    2  A    between atoms: C_9  and  C_10
REMARK    3  A    between atoms: C_12  and  C_13
REMARK                            x       y       z     vdW  Elec       q    Type
REMARK                         _______ _______ _______ _____ _____    ______ ____
ROOT
ATOM      1  C   UNL     1     103.085  25.129  29.775  0.00  0.00    -0.061 A 
ATOM      2  C   UNL     1     104.352  24.717  30.176  0.00  0.00    -0.060 A 
ATOM      3  C   UNL     1     104.864  25.056  31.438  0.00  0.00    -0.038 A 
ATOM      4  C   UNL     1     104.081  25.855  32.289  0.00  0.00    +0.050 A 
ATOM      5  C   UNL     1     102.775  26.226  31.926  0.00  0.00    +0.010 A 
ATOM      6  C   UNL     1     102.283  25.861  30.653  0.00  0.00    -0.052 A 
ATOM      7  N   UNL     1     104.334  26.436  33.526  0.00  0.00    -0.342 N 
ATOM      8  C   UNL     1     103.194  27.059  33.979  0.00  0.00    +0.016 A 
ATOM      9  C   UNL     1     102.213  26.941  33.017  0.00  0.00    +0.039 A 
ENDROOT
BRANCH   9  10
ATOM     10  C   UNL     1     100.866  27.476  33.125  0.00  0.00    +0.152 C 
ATOM     11  O   UNL     1     100.264  27.996  32.196  0.00  0.00    -0.296 OA
ENDBRANCH   9  10
BRANCH   7  12
ATOM     12  C   UNL     1     105.622  26.556  34.218  0.00  0.00    +0.048 C 
BRANCH  12  13
ATOM     13  C   UNL     1     106.341  25.233  34.327  0.00  0.00    -0.028 A 
ATOM     14  C   UNL     1     105.745  24.167  35.014  0.00  0.00    -0.055 A 
ATOM     15  C   UNL     1     106.479  23.018  35.311  0.00  0.00    -0.043 A 
ATOM     16  C   UNL     1     107.801  22.911  34.886  0.00  0.00    +0.041 A 
ATOM     17  C   UNL     1     108.370  23.910  34.099  0.00  0.00    -0.043 A 
ATOM     18  C   UNL     1     107.639  25.069  33.816  0.00  0.00    -0.055 A 
ATOM     19 CL   UNL     1     108.751  21.568  35.386  0.00  0.00    -0.084 Cl
ENDBRANCH  12  13
ENDBRANCH   7  12
TORSDOF 3
ENDMDL
