MODEL 1
REMARK VINA RESULT:    -8.352      0.000      0.000
REMARK INTER + INTRA:          -9.403
REMARK INTER:                  -9.329
REMARK INTRA:                  -0.074
REMARK UNBOUND:                -0.074
REMARK  Name = 1d.sdf
REMARK  2 active torsions:
REMARK  status: ('A' for Active; 'I' for Inactive)
REMARK    1  A    between atoms: C_9  and  C_10
REMARK    2  A    between atoms: C_12  and  C_13
REMARK                            x       y       z     vdW  Elec       q    Type
REMARK                         _______ _______ _______ _____ _____    ______ ____
ROOT
ATOM      1  C   UNL     1     108.374  24.521  34.023  0.00  0.00    -0.061 A 
ATOM      2  C   UNL     1     107.885  25.677  34.618  0.00  0.00    -0.060 A 
ATOM      3  C   UNL     1     106.648  26.208  34.243  0.00  0.00    -0.037 A 
ATOM      4  C   UNL     1     105.902  25.546  33.249  0.00  0.00    +0.057 A 
ATOM      5  C   UNL     1     106.377  24.376  32.643  0.00  0.00    +0.011 A 
ATOM      6  C   UNL     1     107.634  23.863  33.038  0.00  0.00    -0.052 A 
ATOM      7  N   UNL     1     104.632  25.812  32.731  0.00  0.00    -0.282 N 
ATOM      8  C   UNL     1     104.364  24.856  31.768  0.00  0.00    +0.024 A 
ATOM      9  C   UNL     1     105.397  23.948  31.704  0.00  0.00    +0.040 A 
ATOM     10  C   UNL     1     103.746  26.850  33.116  0.00  0.00    +0.263 C 
ATOM     11  O   UNL     1     104.213  27.849  33.657  0.00  0.00    -0.267 OA
ENDROOT
BRANCH  10  12
ATOM     12  C   UNL     1     102.278  26.777  32.896  0.00  0.00    +0.040 A 
ATOM     13  C   UNL     1     101.755  26.916  31.603  0.00  0.00    -0.049 A 
ATOM     14  C   UNL     1     100.376  26.907  31.404  0.00  0.00    -0.061 A 
ATOM     15  C   UNL     1      99.519  26.725  32.488  0.00  0.00    -0.062 A 
ATOM     16  C   UNL     1     100.039  26.526  33.768  0.00  0.00    -0.061 A 
ATOM     17  C   UNL     1     101.420  26.545  33.976  0.00  0.00    -0.049 A 
ENDBRANCH  10  12
BRANCH   9  18
ATOM     18  C   UNL     1     105.430  22.792  30.826  0.00  0.00    +0.152 C 
ATOM     19  O   UNL     1     106.449  22.392  30.268  0.00  0.00    -0.296 OA
ENDBRANCH   9  18
TORSDOF 2
ENDMDL
MODEL 2
REMARK VINA RESULT:    -8.177      1.864      3.183
REMARK INTER + INTRA:          -9.207
REMARK INTER:                  -9.717
REMARK INTRA:                   0.510
REMARK UNBOUND:                -0.074
REMARK  Name = 1d.sdf
REMARK  2 active torsions:
REMARK  status: ('A' for Active; 'I' for Inactive)
REMARK    1  A    between atoms: C_9  and  C_10
REMARK    2  A    between atoms: C_12  and  C_13
REMARK                            x       y       z     vdW  Elec       q    Type
REMARK                         _______ _______ _______ _____ _____    ______ ____
ROOT
ATOM      1  C   UNL     1     108.906  23.676  32.256  0.00  0.00    -0.061 A 
ATOM      2  C   UNL     1     108.046  23.571  31.170  0.00  0.00    -0.060 A 
ATOM      3  C   UNL     1     106.706  23.954  31.277  0.00  0.00    -0.037 A 
ATOM      4  C   UNL     1     106.242  24.449  32.511  0.00  0.00    +0.057 A 
ATOM      5  C   UNL     1     107.097  24.566  33.615  0.00  0.00    +0.011 A 
ATOM      6  C   UNL     1     108.446  24.169  33.480  0.00  0.00    -0.052 A 
ATOM      7  N   UNL     1     104.992  24.952  32.881  0.00  0.00    -0.282 N 
ATOM      8  C   UNL     1     105.062  25.306  34.217  0.00  0.00    +0.024 A 
ATOM      9  C   UNL     1     106.340  25.107  34.692  0.00  0.00    +0.040 A 
ATOM     10  C   UNL     1     103.848  25.105  32.058  0.00  0.00    +0.263 C 
ATOM     11  O   UNL     1     103.757  24.413  31.048  0.00  0.00    -0.267 OA
ENDROOT
BRANCH  10  12
ATOM     12  C   UNL     1     102.759  26.069  32.365  0.00  0.00    +0.040 A 
ATOM     13  C   UNL     1     102.792  26.806  33.556  0.00  0.00    -0.049 A 
ATOM     14  C   UNL     1     101.743  27.666  33.873  0.00  0.00    -0.061 A 
ATOM     15  C   UNL     1     100.678  27.818  32.987  0.00  0.00    -0.062 A 
ATOM     16  C   UNL     1     100.672  27.130  31.772  0.00  0.00    -0.061 A 
ATOM     17  C   UNL     1     101.716  26.258  31.453  0.00  0.00    -0.049 A 
ENDBRANCH  10  12
BRANCH   9  18
ATOM     18  C   UNL     1     106.776  25.408  36.043  0.00  0.00    +0.152 C 
ATOM     19  O   UNL     1     107.516  24.676  36.697  0.00  0.00    -0.296 OA
ENDBRANCH   9  18
TORSDOF 2
ENDMDL
MODEL 3
REMARK VINA RESULT:    -7.083      3.811      6.378
REMARK INTER + INTRA:          -7.985
REMARK INTER:                  -7.845
REMARK INTRA:                  -0.140
REMARK UNBOUND:                -0.074
REMARK  Name = 1d.sdf
REMARK  2 active torsions:
REMARK  status: ('A' for Active; 'I' for Inactive)
REMARK    1  A    between atoms: C_9  and  C_10
REMARK    2  A    between atoms: C_12  and  C_13
REMARK                            x       y       z     vdW  Elec       q    Type
REMARK                         _______ _______ _______ _____ _____    ______ ____
ROOT
ATOM      1  C   UNL     1     109.512  21.248  27.166  0.00  0.00    -0.061 A 
ATOM      2  C   UNL     1     108.685  20.610  28.081  0.00  0.00    -0.060 A 
ATOM      3  C   UNL     1     108.370  21.209  29.304  0.00  0.00    -0.037 A 
ATOM      4  C   UNL     1     108.908  22.477  29.592  0.00  0.00    +0.057 A 
ATOM      5  C   UNL     1     109.739  23.139  28.679  0.00  0.00    +0.011 A 
ATOM      6  C   UNL     1     110.044  22.508  27.451  0.00  0.00    -0.052 A 
ATOM      7  N   UNL     1     108.718  23.322  30.689  0.00  0.00    -0.282 N 
ATOM      8  C   UNL     1     109.481  24.457  30.481  0.00  0.00    +0.024 A 
ATOM      9  C   UNL     1     110.100  24.391  29.252  0.00  0.00    +0.040 A 
ATOM     10  C   UNL     1     107.885  23.097  31.814  0.00  0.00    +0.263 C 
ATOM     11  O   UNL     1     107.584  21.941  32.098  0.00  0.00    -0.267 OA
ENDROOT
BRANCH  10  12
ATOM     12  C   UNL     1     107.359  24.201  32.659  0.00  0.00    +0.040 A 
ATOM     13  C   UNL     1     106.017  24.590  32.548  0.00  0.00    -0.049 A 
ATOM     14  C   UNL     1     105.538  25.664  33.296  0.00  0.00    -0.061 A 
ATOM     15  C   UNL     1     106.387  26.328  34.179  0.00  0.00    -0.062 A 
ATOM     16  C   UNL     1     107.708  25.904  34.336  0.00  0.00    -0.061 A 
ATOM     17  C   UNL     1     108.197  24.836  33.581  0.00  0.00    -0.049 A 
ENDBRANCH  10  12
BRANCH   9  18
ATOM     18  C   UNL     1     110.949  25.429  28.696  0.00  0.00    +0.152 C 
ATOM     19  O   UNL     1     110.876  25.814  27.531  0.00  0.00    -0.296 OA
ENDBRANCH   9  18
TORSDOF 2
ENDMDL
