MODEL 1
REMARK VINA RESULT:   -10.152      0.000      0.000
REMARK INTER + INTRA:         -14.279
REMARK INTER:                 -13.713
REMARK INTRA:                  -0.565
REMARK UNBOUND:                -0.565
REMARK  Name = 22c.sdf
REMARK  7 active torsions:
REMARK  status: ('A' for Active; 'I' for Inactive)
REMARK    1  A    between atoms: N_7  and  C_12
REMARK    2  A    between atoms: C_9  and  C_10
REMARK    3  A    between atoms: N_11  and  N_19
REMARK    4  A    between atoms: C_12  and  C_13
REMARK    5  A    between atoms: C_20  and  C_22
REMARK    6  A    between atoms: C_25  and  O_29
REMARK    7  A    between atoms: O_29  and  C_30
REMARK                            x       y       z     vdW  Elec       q    Type
REMARK                         _______ _______ _______ _____ _____    ______ ____
ROOT
ATOM      1  C   UNL     1     109.809  22.054  35.853  0.00  0.00    -0.061 A 
ATOM      2  C   UNL     1     110.941  21.739  35.117  0.00  0.00    -0.060 A 
ATOM      3  C   UNL     1     110.967  21.894  33.723  0.00  0.00    -0.038 A 
ATOM      4  C   UNL     1     109.809  22.365  33.080  0.00  0.00    +0.050 A 
ATOM      5  C   UNL     1     108.677  22.750  33.814  0.00  0.00    +0.009 A 
ATOM      6  C   UNL     1     108.681  22.579  35.218  0.00  0.00    -0.052 A 
ATOM      7  N   UNL     1     109.497  22.541  31.741  0.00  0.00    -0.342 N 
ATOM      8  C   UNL     1     108.252  23.113  31.631  0.00  0.00    +0.015 A 
ATOM      9  C   UNL     1     107.721  23.280  32.895  0.00  0.00    +0.020 A 
ENDROOT
BRANCH   9  10
ATOM     10  C   UNL     1     106.437  23.873  33.211  0.00  0.00    +0.055 C 
ATOM     11  N   UNL     1     105.600  24.145  32.265  0.00  0.00    -0.187 NA
BRANCH  11  12
ATOM     12  N   UNL     1     104.413  24.716  32.652  0.00  0.00    -0.203 N 
ATOM     13  C   UNL     1     103.706  25.492  31.749  0.00  0.00    +0.263 C 
ATOM     14  O   UNL     1     104.046  25.711  30.584  0.00  0.00    -0.268 OA
ATOM     15  H   UNL     1     104.069  24.575  33.563  0.00  0.00    +0.000 HD
BRANCH  13  16
ATOM     16  C   UNL     1     102.414  26.065  32.236  0.00  0.00    +0.039 A 
ATOM     17  C   UNL     1     102.033  26.038  33.581  0.00  0.00    -0.046 A 
ATOM     18  C   UNL     1     100.796  26.572  33.966  0.00  0.00    -0.019 A 
ATOM     19  C   UNL     1      99.943  27.161  33.026  0.00  0.00    +0.120 A 
ATOM     20  C   UNL     1     100.331  27.212  31.690  0.00  0.00    -0.019 A 
ATOM     21  C   UNL     1     101.563  26.671  31.298  0.00  0.00    -0.046 A 
BRANCH  19  22
ATOM     22  O   UNL     1      98.742  27.589  33.520  0.00  0.00    -0.495 OA
ATOM     23  C   UNL     1      97.786  26.581  33.830  0.00  0.00    +0.079 C 
ENDBRANCH  19  22
ENDBRANCH  13  16
ENDBRANCH  11  12
ENDBRANCH   9  10
BRANCH   7  24
ATOM     24  C   UNL     1     110.265  22.070  30.583  0.00  0.00    +0.048 C 
BRANCH  24  25
ATOM     25  C   UNL     1     110.341  23.111  29.492  0.00  0.00    -0.028 A 
ATOM     26  C   UNL     1     110.378  22.723  28.145  0.00  0.00    -0.055 A 
ATOM     27  C   UNL     1     110.637  23.661  27.144  0.00  0.00    -0.043 A 
ATOM     28  C   UNL     1     110.829  24.998  27.481  0.00  0.00    +0.041 A 
ATOM     29  C   UNL     1     110.693  25.417  28.803  0.00  0.00    -0.043 A 
ATOM     30  C   UNL     1     110.448  24.476  29.806  0.00  0.00    -0.055 A 
ATOM     31 CL   UNL     1     111.281  26.128  26.265  0.00  0.00    -0.084 Cl
ENDBRANCH  24  25
ENDBRANCH   7  24
TORSDOF 6
ENDMDL
MODEL 2
REMARK VINA RESULT:    -9.452      2.075      2.796
REMARK INTER + INTRA:         -13.332
REMARK INTER:                 -12.440
REMARK INTRA:                  -0.893
REMARK UNBOUND:                -0.565
REMARK  Name = 22c.sdf
REMARK  7 active torsions:
REMARK  status: ('A' for Active; 'I' for Inactive)
REMARK    1  A    between atoms: N_7  and  C_12
REMARK    2  A    between atoms: C_9  and  C_10
REMARK    3  A    between atoms: N_11  and  N_19
REMARK    4  A    between atoms: C_12  and  C_13
REMARK    5  A    between atoms: C_20  and  C_22
REMARK    6  A    between atoms: C_25  and  O_29
REMARK    7  A    between atoms: O_29  and  C_30
REMARK                            x       y       z     vdW  Elec       q    Type
REMARK                         _______ _______ _______ _____ _____    ______ ____
ROOT
ATOM      1  C   UNL     1     109.837  21.884  35.242  0.00  0.00    -0.061 A 
ATOM      2  C   UNL     1     111.009  21.702  34.523  0.00  0.00    -0.060 A 
ATOM      3  C   UNL     1     111.115  22.123  33.189  0.00  0.00    -0.038 A 
ATOM      4  C   UNL     1     109.996  22.724  32.585  0.00  0.00    +0.050 A 
ATOM      5  C   UNL     1     108.825  22.975  33.316  0.00  0.00    +0.009 A 
ATOM      6  C   UNL     1     108.748  22.536  34.658  0.00  0.00    -0.052 A 
ATOM      7  N   UNL     1     109.762  23.159  31.290  0.00  0.00    -0.342 N 
ATOM      8  C   UNL     1     108.526  23.757  31.224  0.00  0.00    +0.015 A 
ATOM      9  C   UNL     1     107.924  23.684  32.464  0.00  0.00    +0.020 A 
ENDROOT
BRANCH   9  10
ATOM     10  C   UNL     1     106.625  24.221  32.816  0.00  0.00    +0.055 C 
ATOM     11  N   UNL     1     105.625  24.077  32.011  0.00  0.00    -0.187 NA
BRANCH  11  12
ATOM     12  N   UNL     1     104.435  24.626  32.418  0.00  0.00    -0.203 N 
ATOM     13  C   UNL     1     103.763  25.493  31.572  0.00  0.00    +0.263 C 
ATOM     14  O   UNL     1     104.138  25.814  30.442  0.00  0.00    -0.268 OA
ATOM     15  H   UNL     1     104.064  24.406  33.302  0.00  0.00    +0.000 HD
BRANCH  13  16
ATOM     16  C   UNL     1     102.465  26.037  32.075  0.00  0.00    +0.039 A 
ATOM     17  C   UNL     1     101.483  26.561  31.227  0.00  0.00    -0.046 A 
ATOM     18  C   UNL     1     100.298  27.077  31.767  0.00  0.00    -0.019 A 
ATOM     19  C   UNL     1     100.066  27.051  33.147  0.00  0.00    +0.120 A 
ATOM     20  C   UNL     1     101.029  26.506  33.991  0.00  0.00    -0.019 A 
ATOM     21  C   UNL     1     102.221  25.997  33.457  0.00  0.00    -0.046 A 
BRANCH  19  22
ATOM     22  O   UNL     1      98.899  27.639  33.550  0.00  0.00    -0.495 OA
ATOM     23  C   UNL     1      97.700  26.919  33.286  0.00  0.00    +0.079 C 
ENDBRANCH  19  22
ENDBRANCH  13  16
ENDBRANCH  11  12
ENDBRANCH   9  10
BRANCH   7  24
ATOM     24  C   UNL     1     110.594  22.910  30.107  0.00  0.00    +0.048 C 
BRANCH  24  25
ATOM     25  C   UNL     1     110.549  21.464  29.676  0.00  0.00    -0.028 A 
ATOM     26  C   UNL     1     111.526  20.562  30.123  0.00  0.00    -0.055 A 
ATOM     27  C   UNL     1     111.602  19.277  29.584  0.00  0.00    -0.043 A 
ATOM     28  C   UNL     1     110.682  18.874  28.619  0.00  0.00    +0.041 A 
ATOM     29  C   UNL     1     109.644  19.722  28.241  0.00  0.00    -0.043 A 
ATOM     30  C   UNL     1     109.576  21.014  28.769  0.00  0.00    -0.055 A 
ATOM     31 CL   UNL     1     110.859  17.342  27.859  0.00  0.00    -0.084 Cl
ENDBRANCH  24  25
ENDBRANCH   7  24
TORSDOF 6
ENDMDL
MODEL 3
REMARK VINA RESULT:    -9.107      4.181      9.736
REMARK INTER + INTRA:         -12.866
REMARK INTER:                 -12.130
REMARK INTRA:                  -0.736
REMARK UNBOUND:                -0.565
REMARK  Name = 22c.sdf
REMARK  7 active torsions:
REMARK  status: ('A' for Active; 'I' for Inactive)
REMARK    1  A    between atoms: N_7  and  C_12
REMARK    2  A    between atoms: C_9  and  C_10
REMARK    3  A    between atoms: N_11  and  N_19
REMARK    4  A    between atoms: C_12  and  C_13
REMARK    5  A    between atoms: C_20  and  C_22
REMARK    6  A    between atoms: C_25  and  O_29
REMARK    7  A    between atoms: O_29  and  C_30
REMARK                            x       y       z     vdW  Elec       q    Type
REMARK                         _______ _______ _______ _____ _____    ______ ____
ROOT
ATOM      1  C   UNL     1     107.811  23.804  35.736  0.00  0.00    -0.061 A 
ATOM      2  C   UNL     1     106.935  24.692  36.342  0.00  0.00    -0.060 A 
ATOM      3  C   UNL     1     106.000  25.418  35.587  0.00  0.00    -0.038 A 
ATOM      4  C   UNL     1     105.980  25.237  34.193  0.00  0.00    +0.050 A 
ATOM      5  C   UNL     1     106.815  24.296  33.572  0.00  0.00    +0.009 A 
ATOM      6  C   UNL     1     107.748  23.582  34.358  0.00  0.00    -0.052 A 
ATOM      7  N   UNL     1     105.253  25.854  33.188  0.00  0.00    -0.342 N 
ATOM      8  C   UNL     1     105.539  25.258  31.983  0.00  0.00    +0.015 A 
ATOM      9  C   UNL     1     106.484  24.272  32.182  0.00  0.00    +0.020 A 
ENDROOT
BRANCH   9  10
ATOM     10  C   UNL     1     107.032  23.396  31.166  0.00  0.00    +0.055 C 
ATOM     11  N   UNL     1     108.261  23.530  30.791  0.00  0.00    -0.187 NA
BRANCH  11  12
ATOM     12  N   UNL     1     108.694  22.666  29.815  0.00  0.00    -0.203 N 
ATOM     13  C   UNL     1     109.913  22.894  29.199  0.00  0.00    +0.263 C 
ATOM     14  O   UNL     1     110.680  23.823  29.465  0.00  0.00    -0.268 OA
ATOM     15  H   UNL     1     108.143  21.893  29.557  0.00  0.00    +0.000 HD
BRANCH  13  16
ATOM     16  C   UNL     1     110.327  21.902  28.160  0.00  0.00    +0.039 A 
ATOM     17  C   UNL     1     109.511  20.839  27.761  0.00  0.00    -0.046 A 
ATOM     18  C   UNL     1     109.970  19.930  26.798  0.00  0.00    -0.019 A 
ATOM     19  C   UNL     1     111.228  20.086  26.206  0.00  0.00    +0.120 A 
ATOM     20  C   UNL     1     112.032  21.158  26.582  0.00  0.00    -0.019 A 
ATOM     21  C   UNL     1     111.582  22.064  27.552  0.00  0.00    -0.046 A 
BRANCH  19  22
ATOM     22  O   UNL     1     111.582  19.099  25.327  0.00  0.00    -0.495 OA
ATOM     23  C   UNL     1     112.812  18.431  25.583  0.00  0.00    +0.079 C 
ENDBRANCH  19  22
ENDBRANCH  13  16
ENDBRANCH  11  12
ENDBRANCH   9  10
BRANCH   7  24
ATOM     24  C   UNL     1     104.417  27.054  33.307  0.00  0.00    +0.048 C 
BRANCH  24  25
ATOM     25  C   UNL     1     102.952  26.747  33.111  0.00  0.00    -0.028 A 
ATOM     26  C   UNL     1     102.415  26.662  31.819  0.00  0.00    -0.055 A 
ATOM     27  C   UNL     1     101.034  26.565  31.631  0.00  0.00    -0.043 A 
ATOM     28  C   UNL     1     100.187  26.520  32.734  0.00  0.00    +0.041 A 
ATOM     29  C   UNL     1     100.711  26.499  34.024  0.00  0.00    -0.043 A 
ATOM     30  C   UNL     1     102.091  26.610  34.213  0.00  0.00    -0.055 A 
ATOM     31 CL   UNL     1      98.482  26.539  32.502  0.00  0.00    -0.084 Cl
ENDBRANCH  24  25
ENDBRANCH   7  24
TORSDOF 6
ENDMDL
