MODEL 1
REMARK VINA RESULT:    -9.901      0.000      0.000
REMARK INTER + INTRA:         -13.298
REMARK INTER:                 -13.084
REMARK INTRA:                  -0.214
REMARK UNBOUND:                -0.214
REMARK  Name = 27a.sdf
REMARK  6 active torsions:
REMARK  status: ('A' for Active; 'I' for Inactive)
REMARK    1  A    between atoms: N_7  and  C_10
REMARK    2  A    between atoms: C_9  and  C_18
REMARK    3  A    between atoms: C_10  and  C_11
REMARK    4  A    between atoms: N_19  and  N_20
REMARK    5  A    between atoms: C_21  and  C_23
REMARK    6  A    between atoms: C_26  and  N_29
REMARK                            x       y       z     vdW  Elec       q    Type
REMARK                         _______ _______ _______ _____ _____    ______ ____
ROOT
ATOM      1  C   UNL     1     107.177  26.374  34.438  0.00  0.00    -0.061 A 
ATOM      2  C   UNL     1     108.314  25.663  34.075  0.00  0.00    -0.060 A 
ATOM      3  C   UNL     1     108.243  24.617  33.149  0.00  0.00    -0.038 A 
ATOM      4  C   UNL     1     106.995  24.306  32.584  0.00  0.00    +0.050 A 
ATOM      5  C   UNL     1     105.844  25.040  32.900  0.00  0.00    +0.009 A 
ATOM      6  C   UNL     1     105.942  26.079  33.853  0.00  0.00    -0.052 A 
ATOM      7  N   UNL     1     106.611  23.319  31.696  0.00  0.00    -0.342 N 
ATOM      8  C   UNL     1     105.281  23.462  31.392  0.00  0.00    +0.015 A 
ATOM      9  C   UNL     1     104.769  24.524  32.109  0.00  0.00    +0.020 A 
ENDROOT
BRANCH   9  10
ATOM     10  C   UNL     1     103.405  25.011  32.062  0.00  0.00    +0.055 C 
ATOM     11  N   UNL     1     103.161  26.266  32.256  0.00  0.00    -0.187 NA
BRANCH  11  12
ATOM     12  N   UNL     1     101.846  26.635  32.206  0.00  0.00    -0.203 N 
ATOM     13  C   UNL     1     101.067  26.535  33.352  0.00  0.00    +0.263 C 
ATOM     14  O   UNL     1     101.460  26.143  34.449  0.00  0.00    -0.268 OA
ATOM     15  H   UNL     1     101.455  26.971  31.367  0.00  0.00    +0.000 HD
BRANCH  13  16
ATOM     16  C   UNL     1      99.649  26.980  33.208  0.00  0.00    +0.038 A 
ATOM     17  C   UNL     1      99.290  28.171  32.564  0.00  0.00    -0.048 A 
ATOM     18  C   UNL     1      97.940  28.533  32.462  0.00  0.00    -0.040 A 
ATOM     19  C   UNL     1      96.937  27.738  33.024  0.00  0.00    +0.025 A 
ATOM     20  C   UNL     1      97.295  26.512  33.587  0.00  0.00    -0.040 A 
ATOM     21  C   UNL     1      98.640  26.141  33.695  0.00  0.00    -0.048 A 
BRANCH  19  22
ATOM     22  N   UNL     1      95.590  28.047  32.812  0.00  0.00    -0.358 N 
ATOM     23  H   UNL     1      94.890  27.568  33.311  0.00  0.00    +0.000 HD
ATOM     24  H   UNL     1      95.341  28.746  32.163  0.00  0.00    +0.000 HD
ENDBRANCH  19  22
ENDBRANCH  13  16
ENDBRANCH  11  12
ENDBRANCH   9  10
BRANCH   7  25
ATOM     25  C   UNL     1     107.437  22.206  31.227  0.00  0.00    +0.048 C 
BRANCH  25  26
ATOM     26  C   UNL     1     108.397  22.638  30.147  0.00  0.00    -0.028 A 
ATOM     27  C   UNL     1     108.214  22.220  28.821  0.00  0.00    -0.056 A 
ATOM     28  C   UNL     1     109.165  22.520  27.844  0.00  0.00    -0.047 A 
ATOM     29  C   UNL     1     110.298  23.254  28.185  0.00  0.00    +0.018 A 
ATOM     30  C   UNL     1     110.467  23.728  29.484  0.00  0.00    -0.047 A 
ATOM     31  C   UNL     1     109.517  23.422  30.462  0.00  0.00    -0.056 A 
ATOM     32 BR   UNL     1     111.631  23.577  26.885  0.00  0.00    -0.050 Br
ENDBRANCH  25  26
ENDBRANCH   7  25
TORSDOF 6
ENDMDL
MODEL 2
REMARK VINA RESULT:    -9.555      4.513     10.503
REMARK INTER + INTRA:         -12.842
REMARK INTER:                 -11.990
REMARK INTRA:                  -0.851
REMARK UNBOUND:                -0.214
REMARK  Name = 27a.sdf
REMARK  6 active torsions:
REMARK  status: ('A' for Active; 'I' for Inactive)
REMARK    1  A    between atoms: N_7  and  C_10
REMARK    2  A    between atoms: C_9  and  C_18
REMARK    3  A    between atoms: C_10  and  C_11
REMARK    4  A    between atoms: N_19  and  N_20
REMARK    5  A    between atoms: C_21  and  C_23
REMARK    6  A    between atoms: C_26  and  N_29
REMARK                            x       y       z     vdW  Elec       q    Type
REMARK                         _______ _______ _______ _____ _____    ______ ____
ROOT
ATOM      1  C   UNL     1     106.452  21.309  35.182  0.00  0.00    -0.061 A 
ATOM      2  C   UNL     1     105.758  22.345  35.795  0.00  0.00    -0.060 A 
ATOM      3  C   UNL     1     105.574  23.570  35.146  0.00  0.00    -0.038 A 
ATOM      4  C   UNL     1     106.099  23.729  33.853  0.00  0.00    +0.050 A 
ATOM      5  C   UNL     1     106.762  22.682  33.197  0.00  0.00    +0.009 A 
ATOM      6  C   UNL     1     106.949  21.462  33.885  0.00  0.00    -0.052 A 
ATOM      7  N   UNL     1     106.116  24.814  32.997  0.00  0.00    -0.342 N 
ATOM      8  C   UNL     1     106.697  24.455  31.806  0.00  0.00    +0.015 A 
ATOM      9  C   UNL     1     107.102  23.139  31.885  0.00  0.00    +0.020 A 
ENDROOT
BRANCH   9  10
ATOM     10  C   UNL     1     107.747  22.378  30.833  0.00  0.00    +0.055 C 
ATOM     11  N   UNL     1     108.998  22.067  30.936  0.00  0.00    -0.187 NA
BRANCH  11  12
ATOM     12  N   UNL     1     109.527  21.360  29.894  0.00  0.00    -0.203 N 
ATOM     13  C   UNL     1     110.395  21.993  29.012  0.00  0.00    +0.263 C 
ATOM     14  O   UNL     1     110.756  23.166  29.088  0.00  0.00    -0.268 OA
ATOM     15  H   UNL     1     109.297  20.411  29.768  0.00  0.00    +0.000 HD
BRANCH  13  16
ATOM     16  C   UNL     1     110.940  21.137  27.917  0.00  0.00    +0.038 A 
ATOM     17  C   UNL     1     112.233  20.600  27.945  0.00  0.00    -0.048 A 
ATOM     18  C   UNL     1     112.685  19.804  26.884  0.00  0.00    -0.040 A 
ATOM     19  C   UNL     1     111.873  19.558  25.772  0.00  0.00    +0.025 A 
ATOM     20  C   UNL     1     110.557  20.023  25.792  0.00  0.00    -0.040 A 
ATOM     21  C   UNL     1     110.096  20.821  26.845  0.00  0.00    -0.048 A 
BRANCH  19  22
ATOM     22  N   UNL     1     112.289  18.665  24.779  0.00  0.00    -0.358 N 
ATOM     23  H   UNL     1     113.248  18.492  24.643  0.00  0.00    +0.000 HD
ATOM     24  H   UNL     1     111.621  18.209  24.217  0.00  0.00    +0.000 HD
ENDBRANCH  19  22
ENDBRANCH  13  16
ENDBRANCH  11  12
ENDBRANCH   9  10
BRANCH   7  25
ATOM     25  C   UNL     1     105.699  26.178  33.319  0.00  0.00    +0.048 C 
BRANCH  25  26
ATOM     26  C   UNL     1     104.214  26.367  33.140  0.00  0.00    -0.028 A 
ATOM     27  C   UNL     1     103.585  25.991  31.943  0.00  0.00    -0.056 A 
ATOM     28  C   UNL     1     102.234  26.273  31.731  0.00  0.00    -0.047 A 
ATOM     29  C   UNL     1     101.500  26.920  32.722  0.00  0.00    +0.018 A 
ATOM     30  C   UNL     1     102.092  27.249  33.939  0.00  0.00    -0.047 A 
ATOM     31  C   UNL     1     103.446  26.971  34.147  0.00  0.00    -0.056 A 
ATOM     32 BR   UNL     1      99.698  27.389  32.396  0.00  0.00    -0.050 Br
ENDBRANCH  25  26
ENDBRANCH   7  25
TORSDOF 6
ENDMDL
MODEL 3
REMARK VINA RESULT:    -9.313      2.803      3.775
REMARK INTER + INTRA:         -12.521
REMARK INTER:                 -11.726
REMARK INTRA:                  -0.795
REMARK UNBOUND:                -0.214
REMARK  Name = 27a.sdf
REMARK  6 active torsions:
REMARK  status: ('A' for Active; 'I' for Inactive)
REMARK    1  A    between atoms: N_7  and  C_10
REMARK    2  A    between atoms: C_9  and  C_18
REMARK    3  A    between atoms: C_10  and  C_11
REMARK    4  A    between atoms: N_19  and  N_20
REMARK    5  A    between atoms: C_21  and  C_23
REMARK    6  A    between atoms: C_26  and  N_29
REMARK                            x       y       z     vdW  Elec       q    Type
REMARK                         _______ _______ _______ _____ _____    ______ ____
ROOT
ATOM      1  C   UNL     1     109.738  21.833  35.385  0.00  0.00    -0.061 A 
ATOM      2  C   UNL     1     110.904  21.682  34.645  0.00  0.00    -0.060 A 
ATOM      3  C   UNL     1     110.968  22.099  33.311  0.00  0.00    -0.038 A 
ATOM      4  C   UNL     1     109.828  22.684  32.737  0.00  0.00    +0.050 A 
ATOM      5  C   UNL     1     108.656  22.889  33.478  0.00  0.00    +0.009 A 
ATOM      6  C   UNL     1     108.615  22.441  34.818  0.00  0.00    -0.052 A 
ATOM      7  N   UNL     1     109.578  23.142  31.456  0.00  0.00    -0.342 N 
ATOM      8  C   UNL     1     108.322  23.692  31.399  0.00  0.00    +0.015 A 
ATOM      9  C   UNL     1     107.720  23.565  32.633  0.00  0.00    +0.020 A 
ENDROOT
BRANCH   9  10
ATOM     10  C   UNL     1     106.396  24.031  32.992  0.00  0.00    +0.055 C 
ATOM     11  N   UNL     1     105.655  24.613  32.106  0.00  0.00    -0.187 NA
BRANCH  11  12
ATOM     12  N   UNL     1     104.426  25.031  32.534  0.00  0.00    -0.203 N 
ATOM     13  C   UNL     1     103.613  25.753  31.669  0.00  0.00    +0.263 C 
ATOM     14  O   UNL     1     103.895  26.052  30.510  0.00  0.00    -0.268 OA
ATOM     15  H   UNL     1     104.120  24.823  33.447  0.00  0.00    +0.000 HD
BRANCH  13  16
ATOM     16  C   UNL     1     102.282  26.149  32.216  0.00  0.00    +0.038 A 
ATOM     17  C   UNL     1     101.965  26.064  33.578  0.00  0.00    -0.048 A 
ATOM     18  C   UNL     1     100.696  26.451  34.028  0.00  0.00    -0.040 A 
ATOM     19  C   UNL     1      99.718  26.894  33.132  0.00  0.00    +0.025 A 
ATOM     20  C   UNL     1     100.069  27.058  31.791  0.00  0.00    -0.040 A 
ATOM     21  C   UNL     1     101.333  26.673  31.330  0.00  0.00    -0.048 A 
BRANCH  19  22
ATOM     22  N   UNL     1      98.500  27.391  33.606  0.00  0.00    -0.358 N 
ATOM     23  H   UNL     1      97.658  26.949  33.356  0.00  0.00    +0.000 HD
ATOM     24  H   UNL     1      98.486  28.182  34.192  0.00  0.00    +0.000 HD
ENDBRANCH  19  22
ENDBRANCH  13  16
ENDBRANCH  11  12
ENDBRANCH   9  10
BRANCH   7  25
ATOM     25  C   UNL     1     110.447  22.974  30.292  0.00  0.00    +0.048 C 
BRANCH  25  26
ATOM     26  C   UNL     1     110.484  21.541  29.823  0.00  0.00    -0.028 A 
ATOM     27  C   UNL     1     111.512  20.680  30.236  0.00  0.00    -0.056 A 
ATOM     28  C   UNL     1     111.613  19.391  29.711  0.00  0.00    -0.047 A 
ATOM     29  C   UNL     1     110.677  18.949  28.779  0.00  0.00    +0.018 A 
ATOM     30  C   UNL     1     109.616  19.768  28.401  0.00  0.00    -0.047 A 
ATOM     31  C   UNL     1     109.520  21.061  28.923  0.00  0.00    -0.056 A 
ATOM     32 BR   UNL     1     110.871  17.240  27.996  0.00  0.00    -0.050 Br
ENDBRANCH  25  26
ENDBRANCH   7  25
TORSDOF 6
ENDMDL
