MODEL 1
REMARK VINA RESULT:   -10.080      0.000      0.000
REMARK INTER + INTRA:         -13.649
REMARK INTER:                 -13.321
REMARK INTRA:                  -0.328
REMARK UNBOUND:                -0.328
REMARK  Name = 27c.sdf
REMARK  6 active torsions:
REMARK  status: ('A' for Active; 'I' for Inactive)
REMARK    1  A    between atoms: N_7  and  C_10
REMARK    2  A    between atoms: C_9  and  C_18
REMARK    3  A    between atoms: C_10  and  C_11
REMARK    4  A    between atoms: N_19  and  N_20
REMARK    5  A    between atoms: C_21  and  C_23
REMARK    6  A    between atoms: C_26  and  N_29
REMARK                            x       y       z     vdW  Elec       q    Type
REMARK                         _______ _______ _______ _____ _____    ______ ____
ROOT
ATOM      1  C   UNL     1     109.862  22.035  35.906  0.00  0.00    -0.061 A 
ATOM      2  C   UNL     1     111.002  21.686  35.193  0.00  0.00    -0.060 A 
ATOM      3  C   UNL     1     111.043  21.802  33.799  0.00  0.00    -0.038 A 
ATOM      4  C   UNL     1     109.902  22.284  33.133  0.00  0.00    +0.050 A 
ATOM      5  C   UNL     1     108.764  22.694  33.838  0.00  0.00    +0.009 A 
ATOM      6  C   UNL     1     108.746  22.552  35.243  0.00  0.00    -0.052 A 
ATOM      7  N   UNL     1     109.623  22.447  31.788  0.00  0.00    -0.342 N 
ATOM      8  C   UNL     1     108.385  23.024  31.639  0.00  0.00    +0.015 A 
ATOM      9  C   UNL     1     107.823  23.201  32.891  0.00  0.00    +0.020 A 
ENDROOT
BRANCH   9  10
ATOM     10  C   UNL     1     106.534  23.799  33.167  0.00  0.00    +0.055 C 
ATOM     11  N   UNL     1     105.866  24.363  32.214  0.00  0.00    -0.187 NA
BRANCH  11  12
ATOM     12  N   UNL     1     104.660  24.913  32.566  0.00  0.00    -0.203 N 
ATOM     13  C   UNL     1     103.862  25.491  31.587  0.00  0.00    +0.263 C 
ATOM     14  O   UNL     1     104.138  25.549  30.393  0.00  0.00    -0.268 OA
ATOM     15  H   UNL     1     104.362  24.898  33.504  0.00  0.00    +0.000 HD
BRANCH  13  16
ATOM     16  C   UNL     1     102.553  26.037  32.053  0.00  0.00    +0.038 A 
ATOM     17  C   UNL     1     101.585  26.533  31.173  0.00  0.00    -0.048 A 
ATOM     18  C   UNL     1     100.378  27.039  31.673  0.00  0.00    -0.040 A 
ATOM     19  C   UNL     1     100.134  27.089  33.049  0.00  0.00    +0.025 A 
ATOM     20  C   UNL     1     101.064  26.511  33.913  0.00  0.00    -0.040 A 
ATOM     21  C   UNL     1     102.275  26.004  33.424  0.00  0.00    -0.048 A 
BRANCH  19  22
ATOM     22  N   UNL     1      98.882  27.490  33.528  0.00  0.00    -0.358 N 
ATOM     23  H   UNL     1      98.822  28.073  34.319  0.00  0.00    +0.000 HD
ATOM     24  H   UNL     1      98.062  27.190  33.075  0.00  0.00    +0.000 HD
ENDBRANCH  19  22
ENDBRANCH  13  16
ENDBRANCH  11  12
ENDBRANCH   9  10
BRANCH   7  25
ATOM     25  C   UNL     1     110.438  21.978  30.666  0.00  0.00    +0.048 C 
BRANCH  25  26
ATOM     26  C   UNL     1     110.531  23.013  29.572  0.00  0.00    -0.028 A 
ATOM     27  C   UNL     1     110.852  22.634  28.259  0.00  0.00    -0.055 A 
ATOM     28  C   UNL     1     111.085  23.601  27.279  0.00  0.00    -0.043 A 
ATOM     29  C   UNL     1     110.977  24.952  27.601  0.00  0.00    +0.041 A 
ATOM     30  C   UNL     1     110.586  25.343  28.878  0.00  0.00    -0.043 A 
ATOM     31  C   UNL     1     110.361  24.376  29.861  0.00  0.00    -0.055 A 
ATOM     32 CL   UNL     1     111.362  26.143  26.419  0.00  0.00    -0.084 Cl
ENDBRANCH  25  26
ENDBRANCH   7  25
TORSDOF 6
ENDMDL
MODEL 2
REMARK VINA RESULT:    -9.931      2.334      3.333
REMARK INTER + INTRA:         -13.453
REMARK INTER:                 -13.145
REMARK INTRA:                  -0.308
REMARK UNBOUND:                -0.328
REMARK  Name = 27c.sdf
REMARK  6 active torsions:
REMARK  status: ('A' for Active; 'I' for Inactive)
REMARK    1  A    between atoms: N_7  and  C_10
REMARK    2  A    between atoms: C_9  and  C_18
REMARK    3  A    between atoms: C_10  and  C_11
REMARK    4  A    between atoms: N_19  and  N_20
REMARK    5  A    between atoms: C_21  and  C_23
REMARK    6  A    between atoms: C_26  and  N_29
REMARK                            x       y       z     vdW  Elec       q    Type
REMARK                         _______ _______ _______ _____ _____    ______ ____
ROOT
ATOM      1  C   UNL     1     107.166  26.126  34.471  0.00  0.00    -0.061 A 
ATOM      2  C   UNL     1     108.320  25.480  34.049  0.00  0.00    -0.060 A 
ATOM      3  C   UNL     1     108.280  24.526  33.026  0.00  0.00    -0.038 A 
ATOM      4  C   UNL     1     107.039  24.235  32.431  0.00  0.00    +0.050 A 
ATOM      5  C   UNL     1     105.873  24.916  32.803  0.00  0.00    +0.009 A 
ATOM      6  C   UNL     1     105.942  25.863  33.848  0.00  0.00    -0.052 A 
ATOM      7  N   UNL     1     106.678  23.317  31.462  0.00  0.00    -0.342 N 
ATOM      8  C   UNL     1     105.346  23.463  31.160  0.00  0.00    +0.015 A 
ATOM      9  C   UNL     1     104.813  24.453  31.967  0.00  0.00    +0.020 A 
ENDROOT
BRANCH   9  10
ATOM     10  C   UNL     1     103.444  24.923  31.942  0.00  0.00    +0.055 C 
ATOM     11  N   UNL     1     103.188  26.177  32.126  0.00  0.00    -0.187 NA
BRANCH  11  12
ATOM     12  N   UNL     1     101.865  26.534  32.097  0.00  0.00    -0.203 N 
ATOM     13  C   UNL     1     101.121  26.500  33.270  0.00  0.00    +0.263 C 
ATOM     14  O   UNL     1     101.555  26.179  34.372  0.00  0.00    -0.268 OA
ATOM     15  H   UNL     1     101.444  26.813  31.251  0.00  0.00    +0.000 HD
BRANCH  13  16
ATOM     16  C   UNL     1      99.698  26.934  33.152  0.00  0.00    +0.038 A 
ATOM     17  C   UNL     1      99.321  28.131  32.536  0.00  0.00    -0.048 A 
ATOM     18  C   UNL     1      97.968  28.486  32.463  0.00  0.00    -0.040 A 
ATOM     19  C   UNL     1      96.980  27.675  33.029  0.00  0.00    +0.025 A 
ATOM     20  C   UNL     1      97.354  26.440  33.562  0.00  0.00    -0.040 A 
ATOM     21  C   UNL     1      98.704  26.077  33.642  0.00  0.00    -0.048 A 
BRANCH  19  22
ATOM     22  N   UNL     1      95.627  27.982  32.851  0.00  0.00    -0.358 N 
ATOM     23  H   UNL     1      94.989  27.273  32.608  0.00  0.00    +0.000 HD
ATOM     24  H   UNL     1      95.313  28.907  32.969  0.00  0.00    +0.000 HD
ENDBRANCH  19  22
ENDBRANCH  13  16
ENDBRANCH  11  12
ENDBRANCH   9  10
BRANCH   7  25
ATOM     25  C   UNL     1     107.521  22.255  30.910  0.00  0.00    +0.048 C 
BRANCH  25  26
ATOM     26  C   UNL     1     108.456  22.780  29.848  0.00  0.00    -0.028 A 
ATOM     27  C   UNL     1     108.291  22.406  28.505  0.00  0.00    -0.055 A 
ATOM     28  C   UNL     1     109.239  22.768  27.546  0.00  0.00    -0.043 A 
ATOM     29  C   UNL     1     110.346  23.525  27.920  0.00  0.00    +0.041 A 
ATOM     30  C   UNL     1     110.487  23.968  29.232  0.00  0.00    -0.043 A 
ATOM     31  C   UNL     1     109.543  23.598  30.193  0.00  0.00    -0.055 A 
ATOM     32 CL   UNL     1     111.564  23.885  26.758  0.00  0.00    -0.084 Cl
ENDBRANCH  25  26
ENDBRANCH   7  25
TORSDOF 6
ENDMDL
MODEL 3
REMARK VINA RESULT:    -9.660      3.688      9.171
REMARK INTER + INTRA:         -13.094
REMARK INTER:                 -12.407
REMARK INTRA:                  -0.687
REMARK UNBOUND:                -0.328
REMARK  Name = 27c.sdf
REMARK  6 active torsions:
REMARK  status: ('A' for Active; 'I' for Inactive)
REMARK    1  A    between atoms: N_7  and  C_10
REMARK    2  A    between atoms: C_9  and  C_18
REMARK    3  A    between atoms: C_10  and  C_11
REMARK    4  A    between atoms: N_19  and  N_20
REMARK    5  A    between atoms: C_21  and  C_23
REMARK    6  A    between atoms: C_26  and  N_29
REMARK                            x       y       z     vdW  Elec       q    Type
REMARK                         _______ _______ _______ _____ _____    ______ ____
ROOT
ATOM      1  C   UNL     1     107.786  23.746  35.716  0.00  0.00    -0.061 A 
ATOM      2  C   UNL     1     106.947  24.669  36.327  0.00  0.00    -0.060 A 
ATOM      3  C   UNL     1     106.046  25.431  35.576  0.00  0.00    -0.038 A 
ATOM      4  C   UNL     1     106.005  25.241  34.184  0.00  0.00    +0.050 A 
ATOM      5  C   UNL     1     106.801  24.276  33.556  0.00  0.00    +0.009 A 
ATOM      6  C   UNL     1     107.712  23.531  34.337  0.00  0.00    -0.052 A 
ATOM      7  N   UNL     1     105.281  25.875  33.190  0.00  0.00    -0.342 N 
ATOM      8  C   UNL     1     105.538  25.279  31.979  0.00  0.00    +0.015 A 
ATOM      9  C   UNL     1     106.471  24.275  32.166  0.00  0.00    +0.020 A 
ENDROOT
BRANCH   9  10
ATOM     10  C   UNL     1     106.990  23.395  31.140  0.00  0.00    +0.055 C 
ATOM     11  N   UNL     1     108.248  23.422  30.842  0.00  0.00    -0.187 NA
BRANCH  11  12
ATOM     12  N   UNL     1     108.652  22.564  29.852  0.00  0.00    -0.203 N 
ATOM     13  C   UNL     1     109.777  22.872  29.097  0.00  0.00    +0.263 C 
ATOM     14  O   UNL     1     110.475  23.870  29.245  0.00  0.00    -0.268 OA
ATOM     15  H   UNL     1     108.150  21.735  29.678  0.00  0.00    +0.000 HD
BRANCH  13  16
ATOM     16  C   UNL     1     110.163  21.867  28.063  0.00  0.00    +0.038 A 
ATOM     17  C   UNL     1     109.241  20.994  27.476  0.00  0.00    -0.048 A 
ATOM     18  C   UNL     1     109.667  20.068  26.515  0.00  0.00    -0.040 A 
ATOM     19  C   UNL     1     111.014  19.976  26.152  0.00  0.00    +0.025 A 
ATOM     20  C   UNL     1     111.911  20.909  26.674  0.00  0.00    -0.040 A 
ATOM     21  C   UNL     1     111.496  21.837  27.637  0.00  0.00    -0.048 A 
BRANCH  19  22
ATOM     22  N   UNL     1     111.407  19.128  25.111  0.00  0.00    -0.358 N 
ATOM     23  H   UNL     1     110.792  18.947  24.364  0.00  0.00    +0.000 HD
ATOM     24  H   UNL     1     112.300  18.714  25.125  0.00  0.00    +0.000 HD
ENDBRANCH  19  22
ENDBRANCH  13  16
ENDBRANCH  11  12
ENDBRANCH   9  10
BRANCH   7  25
ATOM     25  C   UNL     1     104.457  27.075  33.343  0.00  0.00    +0.048 C 
BRANCH  25  26
ATOM     26  C   UNL     1     102.996  26.783  33.104  0.00  0.00    -0.028 A 
ATOM     27  C   UNL     1     102.474  26.779  31.802  0.00  0.00    -0.055 A 
ATOM     28  C   UNL     1     101.099  26.658  31.588  0.00  0.00    -0.043 A 
ATOM     29  C   UNL     1     100.241  26.519  32.675  0.00  0.00    +0.041 A 
ATOM     30  C   UNL     1     100.748  26.445  33.969  0.00  0.00    -0.043 A 
ATOM     31  C   UNL     1     102.123  26.575  34.183  0.00  0.00    -0.055 A 
ATOM     32 CL   UNL     1      98.540  26.471  32.417  0.00  0.00    -0.084 Cl
ENDBRANCH  25  26
ENDBRANCH   7  25
TORSDOF 6
ENDMDL
