MODEL 1
REMARK VINA RESULT:    -7.238      0.000      0.000
REMARK INTER + INTRA:          -8.910
REMARK INTER:                  -8.719
REMARK INTRA:                  -0.190
REMARK UNBOUND:                -0.190
REMARK  Name = 3.sdf
REMARK  4 active torsions:
REMARK  status: ('A' for Active; 'I' for Inactive)
REMARK    1  A    between atoms: CG_9  and  CB_10
REMARK    2  A    between atoms: CB_10  and  CA_11
REMARK    3  A    between atoms: CA_11  and  C_12
REMARK    4  A    between atoms: CA_11  and  N_15
REMARK                            x       y       z     vdW  Elec       q    Type
REMARK                         _______ _______ _______ _____ _____    ______ ____
ROOT
ATOM      1  CZ3 TRP A   1     101.615  27.498  33.882  0.00  0.00    -0.061 A 
ATOM      2  CH2 TRP A   1     100.593  27.671  32.952  0.00  0.00    -0.060 A 
ATOM      3  CZ2 TRP A   1     100.690  27.126  31.669  0.00  0.00    -0.038 A 
ATOM      4  CE2 TRP A   1     101.841  26.391  31.362  0.00  0.00    +0.047 A 
ATOM      5  CD2 TRP A   1     102.871  26.172  32.277  0.00  0.00    +0.003 A 
ATOM      6  CE3 TRP A   1     102.756  26.751  33.559  0.00  0.00    -0.052 A 
ATOM      7  NE1 TRP A   1     102.197  25.758  30.196  0.00  0.00    -0.360 N 
ATOM      8  CD1 TRP A   1     103.388  25.106  30.355  0.00  0.00    +0.006 A 
ATOM      9  CG  TRP A   1     103.845  25.327  31.640  0.00  0.00    -0.020 A 
ATOM     10  HE1 TRP A   1     101.669  25.774  29.365  0.00  0.00    +0.000 HD
ENDROOT
BRANCH   9  11
ATOM     11  CB  TRP A   1     105.077  24.752  32.278  0.00  0.00    -0.000 C 
BRANCH  11  12
ATOM     12  CA  TRP A   1     105.886  23.787  31.400  0.00  0.00    +0.107 C 
BRANCH  12  13
ATOM     13  N   TRP A   1     105.419  22.385  31.566  0.00  0.00    -0.318 N 
ATOM     14  H1  TRP A   1     104.702  22.349  32.291  0.00  0.00    +0.000 HD
ATOM     15  H2  TRP A   1     106.206  21.794  31.837  0.00  0.00    +0.000 HD
ATOM     16  H3  TRP A   1     105.030  22.049  30.685  0.00  0.00    +0.000 HD
ENDBRANCH  12  13
BRANCH  12  17
ATOM     17  C   TRP A   1     107.395  23.861  31.676  0.00  0.00    +0.322 C 
ATOM     18  O   TRP A   1     107.716  24.492  32.833  0.00  0.00    -0.480 OA
ATOM     19  OXT TRP A   1     108.242  23.315  30.982  0.00  0.00    -0.249 OA
ENDBRANCH  12  17
ENDBRANCH  11  12
ENDBRANCH   9  11
TORSDOF 4
ENDMDL
MODEL 2
REMARK VINA RESULT:    -7.210      2.004      2.316
REMARK INTER + INTRA:          -8.876
REMARK INTER:                  -8.648
REMARK INTRA:                  -0.228
REMARK UNBOUND:                -0.190
REMARK  Name = 3.sdf
REMARK  4 active torsions:
REMARK  status: ('A' for Active; 'I' for Inactive)
REMARK    1  A    between atoms: CG_9  and  CB_10
REMARK    2  A    between atoms: CB_10  and  CA_11
REMARK    3  A    between atoms: CA_11  and  C_12
REMARK    4  A    between atoms: CA_11  and  N_15
REMARK                            x       y       z     vdW  Elec       q    Type
REMARK                         _______ _______ _______ _____ _____    ______ ____
ROOT
ATOM      1  CZ3 TRP A   1     100.794  27.805  33.446  0.00  0.00    -0.061 A 
ATOM      2  CH2 TRP A   1     100.362  27.473  32.164  0.00  0.00    -0.060 A 
ATOM      3  CZ2 TRP A   1     101.166  26.714  31.310  0.00  0.00    -0.038 A 
ATOM      4  CE2 TRP A   1     102.409  26.290  31.795  0.00  0.00    +0.047 A 
ATOM      5  CD2 TRP A   1     102.862  26.579  33.083  0.00  0.00    +0.003 A 
ATOM      6  CE3 TRP A   1     102.038  27.364  33.918  0.00  0.00    -0.052 A 
ATOM      7  NE1 TRP A   1     103.388  25.549  31.181  0.00  0.00    -0.360 N 
ATOM      8  CD1 TRP A   1     104.419  25.314  32.047  0.00  0.00    +0.006 A 
ATOM      9  CG  TRP A   1     104.134  25.930  33.251  0.00  0.00    -0.020 A 
ATOM     10  HE1 TRP A   1     103.351  25.232  30.249  0.00  0.00    +0.000 HD
ENDROOT
BRANCH   9  11
ATOM     11  CB  TRP A   1     104.949  25.882  34.512  0.00  0.00    -0.000 C 
BRANCH  11  12
ATOM     12  CA  TRP A   1     106.038  24.801  34.554  0.00  0.00    +0.107 C 
BRANCH  12  13
ATOM     13  N   TRP A   1     106.044  24.092  35.862  0.00  0.00    -0.318 N 
ATOM     14  H1  TRP A   1     105.185  24.305  36.368  0.00  0.00    +0.000 HD
ATOM     15  H2  TRP A   1     106.847  24.400  36.412  0.00  0.00    +0.000 HD
ATOM     16  H3  TRP A   1     106.106  23.087  35.704  0.00  0.00    +0.000 HD
ENDBRANCH  12  13
BRANCH  12  17
ATOM     17  C   TRP A   1     107.439  25.361  34.267  0.00  0.00    +0.322 C 
ATOM     18  O   TRP A   1     107.548  26.701  34.452  0.00  0.00    -0.480 OA
ATOM     19  OXT TRP A   1     108.408  24.665  33.998  0.00  0.00    -0.249 OA
ENDBRANCH  12  17
ENDBRANCH  11  12
ENDBRANCH   9  11
TORSDOF 4
ENDMDL
MODEL 3
REMARK VINA RESULT:    -6.666      2.313      3.229
REMARK INTER + INTRA:          -8.220
REMARK INTER:                  -7.970
REMARK INTRA:                  -0.251
REMARK UNBOUND:                -0.190
REMARK  Name = 3.sdf
REMARK  4 active torsions:
REMARK  status: ('A' for Active; 'I' for Inactive)
REMARK    1  A    between atoms: CG_9  and  CB_10
REMARK    2  A    between atoms: CB_10  and  CA_11
REMARK    3  A    between atoms: CA_11  and  C_12
REMARK    4  A    between atoms: CA_11  and  N_15
REMARK                            x       y       z     vdW  Elec       q    Type
REMARK                         _______ _______ _______ _____ _____    ______ ____
ROOT
ATOM      1  CZ3 TRP A   1     102.824  25.791  30.272  0.00  0.00    -0.061 A 
ATOM      2  CH2 TRP A   1     101.896  26.425  31.096  0.00  0.00    -0.060 A 
ATOM      3  CZ2 TRP A   1     102.120  26.543  32.469  0.00  0.00    -0.038 A 
ATOM      4  CE2 TRP A   1     103.312  26.017  32.981  0.00  0.00    +0.047 A 
ATOM      5  CD2 TRP A   1     104.277  25.402  32.182  0.00  0.00    +0.003 A 
ATOM      6  CE3 TRP A   1     104.016  25.278  30.801  0.00  0.00    -0.052 A 
ATOM      7  NE1 TRP A   1     103.780  25.989  34.271  0.00  0.00    -0.360 N 
ATOM      8  CD1 TRP A   1     105.025  25.427  34.313  0.00  0.00    +0.006 A 
ATOM      9  CG  TRP A   1     105.383  25.052  33.031  0.00  0.00    -0.020 A 
ATOM     10  HE1 TRP A   1     103.288  26.327  35.055  0.00  0.00    +0.000 HD
ENDROOT
BRANCH   9  11
ATOM     11  CB  TRP A   1     106.690  24.457  32.590  0.00  0.00    -0.000 C 
BRANCH  11  12
ATOM     12  CA  TRP A   1     107.853  24.611  33.580  0.00  0.00    +0.107 C 
BRANCH  12  13
ATOM     13  N   TRP A   1     109.095  25.051  32.888  0.00  0.00    -0.318 N 
ATOM     14  H1  TRP A   1     109.739  24.264  32.812  0.00  0.00    +0.000 HD
ATOM     15  H2  TRP A   1     109.536  25.799  33.425  0.00  0.00    +0.000 HD
ATOM     16  H3  TRP A   1     108.862  25.394  31.957  0.00  0.00    +0.000 HD
ENDBRANCH  12  13
BRANCH  12  17
ATOM     17  C   TRP A   1     108.134  23.323  34.368  0.00  0.00    +0.322 C 
ATOM     18  O   TRP A   1     109.395  22.846  34.216  0.00  0.00    -0.480 OA
ATOM     19  OXT TRP A   1     107.341  22.815  35.148  0.00  0.00    -0.249 OA
ENDBRANCH  12  17
ENDBRANCH  11  12
ENDBRANCH   9  11
TORSDOF 4
ENDMDL
