MODEL 1
REMARK VINA RESULT:    -8.596      0.000      0.000
REMARK INTER + INTRA:         -10.668
REMARK INTER:                 -10.354
REMARK INTRA:                  -0.314
REMARK UNBOUND:                -0.314
REMARK  Name = 4c.sdf
REMARK  4 active torsions:
REMARK  status: ('A' for Active; 'I' for Inactive)
REMARK    1  A    between atoms: N_7  and  C_11
REMARK    2  A    between atoms: C_9  and  C_10
REMARK    3  A    between atoms: C_10  and  O_19
REMARK    4  A    between atoms: C_11  and  C_12
REMARK                            x       y       z     vdW  Elec       q    Type
REMARK                         _______ _______ _______ _____ _____    ______ ____
ROOT
ATOM      1  C   UNL     1     100.299  27.302  32.189  0.00  0.00    -0.061 A 
ATOM      2  C   UNL     1     100.770  27.778  33.407  0.00  0.00    -0.060 A 
ATOM      3  C   UNL     1     102.071  27.502  33.836  0.00  0.00    -0.038 A 
ATOM      4  C   UNL     1     102.899  26.737  32.996  0.00  0.00    +0.050 A 
ATOM      5  C   UNL     1     102.461  26.281  31.750  0.00  0.00    +0.005 A 
ATOM      6  C   UNL     1     101.136  26.556  31.352  0.00  0.00    -0.052 A 
ATOM      7  N   UNL     1     104.192  26.272  33.162  0.00  0.00    -0.342 N 
ATOM      8  C   UNL     1     104.592  25.599  32.037  0.00  0.00    +0.011 A 
ATOM      9  C   UNL     1     103.548  25.584  31.131  0.00  0.00    +0.003 A 
ENDROOT
BRANCH   9  10
ATOM     10  C   UNL     1     103.540  24.956  29.780  0.00  0.00    +0.071 C 
BRANCH  10  11
ATOM     11  O   UNL     1     103.393  23.538  29.845  0.00  0.00    -0.390 OA
ATOM     12  H   UNL     1     103.245  23.270  30.766  0.00  0.00    +0.000 HD
ENDBRANCH  10  11
ENDBRANCH   9  10
BRANCH   7  13
ATOM     13  C   UNL     1     104.989  26.369  34.384  0.00  0.00    +0.048 C 
BRANCH  13  14
ATOM     14  C   UNL     1     106.000  25.253  34.482  0.00  0.00    -0.028 A 
ATOM     15  C   UNL     1     105.629  23.997  34.986  0.00  0.00    -0.055 A 
ATOM     16  C   UNL     1     106.579  22.988  35.151  0.00  0.00    -0.043 A 
ATOM     17  C   UNL     1     107.907  23.225  34.804  0.00  0.00    +0.041 A 
ATOM     18  C   UNL     1     108.287  24.453  34.269  0.00  0.00    -0.043 A 
ATOM     19  C   UNL     1     107.337  25.464  34.108  0.00  0.00    -0.055 A 
ATOM     20 CL   UNL     1     109.086  21.997  35.052  0.00  0.00    -0.084 Cl
ENDBRANCH  13  14
ENDBRANCH   7  13
TORSDOF 4
ENDMDL
MODEL 2
REMARK VINA RESULT:    -8.143      3.203      6.118
REMARK INTER + INTRA:         -10.123
REMARK INTER:                  -9.689
REMARK INTRA:                  -0.434
REMARK UNBOUND:                -0.314
REMARK  Name = 4c.sdf
REMARK  4 active torsions:
REMARK  status: ('A' for Active; 'I' for Inactive)
REMARK    1  A    between atoms: N_7  and  C_11
REMARK    2  A    between atoms: C_9  and  C_10
REMARK    3  A    between atoms: C_10  and  O_19
REMARK    4  A    between atoms: C_11  and  C_12
REMARK                            x       y       z     vdW  Elec       q    Type
REMARK                         _______ _______ _______ _____ _____    ______ ____
ROOT
ATOM      1  C   UNL     1     107.570  23.904  35.512  0.00  0.00    -0.061 A 
ATOM      2  C   UNL     1     106.935  25.053  35.968  0.00  0.00    -0.060 A 
ATOM      3  C   UNL     1     106.007  25.730  35.172  0.00  0.00    -0.038 A 
ATOM      4  C   UNL     1     105.720  25.210  33.898  0.00  0.00    +0.050 A 
ATOM      5  C   UNL     1     106.316  24.034  33.434  0.00  0.00    +0.005 A 
ATOM      6  C   UNL     1     107.266  23.384  34.250  0.00  0.00    -0.052 A 
ATOM      7  N   UNL     1     104.898  25.670  32.885  0.00  0.00    -0.342 N 
ATOM      8  C   UNL     1     104.914  24.788  31.836  0.00  0.00    +0.011 A 
ATOM      9  C   UNL     1     105.779  23.753  32.136  0.00  0.00    +0.003 A 
ENDROOT
BRANCH   9  10
ATOM     10  C   UNL     1     106.108  22.579  31.279  0.00  0.00    +0.071 C 
BRANCH  10  11
ATOM     11  O   UNL     1     106.026  21.348  31.996  0.00  0.00    -0.390 OA
ATOM     12  H   UNL     1     106.161  20.608  31.383  0.00  0.00    +0.000 HD
ENDBRANCH  10  11
ENDBRANCH   9  10
BRANCH   7  13
ATOM     13  C   UNL     1     104.199  26.954  32.863  0.00  0.00    +0.048 C 
BRANCH  13  14
ATOM     14  C   UNL     1     102.701  26.775  32.837  0.00  0.00    -0.028 A 
ATOM     15  C   UNL     1     101.998  26.831  31.624  0.00  0.00    -0.055 A 
ATOM     16  C   UNL     1     100.604  26.743  31.605  0.00  0.00    -0.043 A 
ATOM     17  C   UNL     1      99.905  26.590  32.799  0.00  0.00    +0.041 A 
ATOM     18  C   UNL     1     100.588  26.498  34.009  0.00  0.00    -0.043 A 
ATOM     19  C   UNL     1     101.982  26.589  34.028  0.00  0.00    -0.055 A 
ATOM     20 CL   UNL     1      98.186  26.531  32.779  0.00  0.00    -0.084 Cl
ENDBRANCH  13  14
ENDBRANCH   7  13
TORSDOF 4
ENDMDL
MODEL 3
REMARK VINA RESULT:    -7.696      4.206      5.691
REMARK INTER + INTRA:          -9.584
REMARK INTER:                  -9.064
REMARK INTRA:                  -0.520
REMARK UNBOUND:                -0.314
REMARK  Name = 4c.sdf
REMARK  4 active torsions:
REMARK  status: ('A' for Active; 'I' for Inactive)
REMARK    1  A    between atoms: N_7  and  C_11
REMARK    2  A    between atoms: C_9  and  C_10
REMARK    3  A    between atoms: C_10  and  O_19
REMARK    4  A    between atoms: C_11  and  C_12
REMARK                            x       y       z     vdW  Elec       q    Type
REMARK                         _______ _______ _______ _____ _____    ______ ____
ROOT
ATOM      1  C   UNL     1     105.734  26.178  34.351  0.00  0.00    -0.061 A 
ATOM      2  C   UNL     1     107.087  26.013  34.623  0.00  0.00    -0.060 A 
ATOM      3  C   UNL     1     107.876  25.146  33.864  0.00  0.00    -0.038 A 
ATOM      4  C   UNL     1     107.268  24.449  32.804  0.00  0.00    +0.050 A 
ATOM      5  C   UNL     1     105.919  24.629  32.486  0.00  0.00    +0.005 A 
ATOM      6  C   UNL     1     105.140  25.494  33.284  0.00  0.00    -0.052 A 
ATOM      7  N   UNL     1     107.766  23.508  31.921  0.00  0.00    -0.342 N 
ATOM      8  C   UNL     1     106.792  23.147  31.028  0.00  0.00    +0.011 A 
ATOM      9  C   UNL     1     105.627  23.823  31.340  0.00  0.00    +0.003 A 
ENDROOT
BRANCH   9  10
ATOM     10  C   UNL     1     104.317  23.726  30.637  0.00  0.00    +0.071 C 
BRANCH  10  11
ATOM     11  O   UNL     1     104.442  23.930  29.230  0.00  0.00    -0.390 OA
ATOM     12  H   UNL     1     105.379  23.892  28.980  0.00  0.00    +0.000 HD
ENDBRANCH  10  11
ENDBRANCH   9  10
BRANCH   7  13
ATOM     13  C   UNL     1     109.091  22.892  31.981  0.00  0.00    +0.048 C 
BRANCH  13  14
ATOM     14  C   UNL     1     109.791  22.940  30.645  0.00  0.00    -0.028 A 
ATOM     15  C   UNL     1     110.111  24.171  30.052  0.00  0.00    -0.055 A 
ATOM     16  C   UNL     1     110.688  24.220  28.782  0.00  0.00    -0.043 A 
ATOM     17  C   UNL     1     110.958  23.037  28.099  0.00  0.00    +0.041 A 
ATOM     18  C   UNL     1     110.680  21.805  28.687  0.00  0.00    -0.043 A 
ATOM     19  C   UNL     1     110.100  21.756  29.956  0.00  0.00    -0.055 A 
ATOM     20 CL   UNL     1     111.625  23.099  26.515  0.00  0.00    -0.084 Cl
ENDBRANCH  13  14
ENDBRANCH   7  13
TORSDOF 4
ENDMDL
