MODEL 1
REMARK VINA RESULT:    -7.416      0.000      0.000
REMARK INTER + INTRA:          -8.915
REMARK INTER:                  -8.717
REMARK INTRA:                  -0.198
REMARK UNBOUND:                -0.198
REMARK  Name = 5.sdf
REMARK  4 active torsions:
REMARK  status: ('A' for Active; 'I' for Inactive)
REMARK    1  A    between atoms: C_9  and  C_10
REMARK    2  A    between atoms: C_11  and  C_12
REMARK    3  A    between atoms: C_12  and  O_13
REMARK    4  A    between atoms: O_13  and  C_15
REMARK                            x       y       z     vdW  Elec       q    Type
REMARK                         _______ _______ _______ _____ _____    ______ ____
ROOT
ATOM      1  C   UNL     1     103.121  25.791  29.942  0.00  0.00    -0.061 A 
ATOM      2  C   UNL     1     104.200  25.206  30.601  0.00  0.00    -0.060 A 
ATOM      3  C   UNL     1     104.210  25.106  31.991  0.00  0.00    -0.038 A 
ATOM      4  C   UNL     1     103.109  25.614  32.690  0.00  0.00    +0.047 A 
ATOM      5  C   UNL     1     102.003  26.209  32.070  0.00  0.00    +0.007 A 
ATOM      6  C   UNL     1     102.022  26.294  30.660  0.00  0.00    -0.052 A 
ATOM      7  N   UNL     1     102.875  25.636  34.043  0.00  0.00    -0.360 N 
ATOM      8  C   UNL     1     101.672  26.229  34.307  0.00  0.00    +0.010 A 
ATOM      9  C   UNL     1     101.089  26.604  33.111  0.00  0.00    +0.000 A 
ATOM     10  H   UNL     1     103.486  25.276  34.726  0.00  0.00    +0.000 HD
ENDROOT
BRANCH   9  11
ATOM     11  C   UNL     1      99.808  27.262  32.993  0.00  0.00    -0.046 C 
ATOM     12  C   UNL     1      98.692  26.848  33.630  0.00  0.00    +0.023 C 
BRANCH  12  13
ATOM     13  C   UNL     1      97.323  27.399  33.620  0.00  0.00    +0.332 C 
ATOM     14  O   UNL     1      96.784  27.707  32.565  0.00  0.00    -0.246 OA
BRANCH  13  15
ATOM     15  O   UNL     1      96.763  27.521  34.847  0.00  0.00    -0.465 OA
ATOM     16  C   UNL     1      96.646  26.263  35.527  0.00  0.00    +0.082 C 
ENDBRANCH  13  15
ENDBRANCH  12  13
ENDBRANCH   9  11
TORSDOF 3
ENDMDL
MODEL 2
REMARK VINA RESULT:    -7.206      4.643      6.747
REMARK INTER + INTRA:          -8.668
REMARK INTER:                  -8.451
REMARK INTRA:                  -0.216
REMARK UNBOUND:                -0.198
REMARK  Name = 5.sdf
REMARK  4 active torsions:
REMARK  status: ('A' for Active; 'I' for Inactive)
REMARK    1  A    between atoms: C_9  and  C_10
REMARK    2  A    between atoms: C_11  and  C_12
REMARK    3  A    between atoms: C_12  and  O_13
REMARK    4  A    between atoms: O_13  and  C_15
REMARK                            x       y       z     vdW  Elec       q    Type
REMARK                         _______ _______ _______ _____ _____    ______ ____
ROOT
ATOM      1  C   UNL     1     100.853  27.680  33.534  0.00  0.00    -0.061 A 
ATOM      2  C   UNL     1     100.400  27.355  32.258  0.00  0.00    -0.060 A 
ATOM      3  C   UNL     1     101.192  26.593  31.399  0.00  0.00    -0.038 A 
ATOM      4  C   UNL     1     102.444  26.177  31.864  0.00  0.00    +0.047 A 
ATOM      5  C   UNL     1     102.939  26.480  33.139  0.00  0.00    +0.007 A 
ATOM      6  C   UNL     1     102.113  27.252  33.985  0.00  0.00    -0.052 A 
ATOM      7  N   UNL     1     103.401  25.426  31.226  0.00  0.00    -0.360 N 
ATOM      8  C   UNL     1     104.485  25.248  32.040  0.00  0.00    +0.010 A 
ATOM      9  C   UNL     1     104.247  25.885  33.243  0.00  0.00    +0.000 A 
ATOM     10  H   UNL     1     103.318  25.066  30.313  0.00  0.00    +0.000 HD
ENDROOT
BRANCH   9  11
ATOM     11  C   UNL     1     105.172  25.914  34.353  0.00  0.00    -0.046 C 
ATOM     12  C   UNL     1     105.862  24.836  34.781  0.00  0.00    +0.023 C 
BRANCH  12  13
ATOM     13  C   UNL     1     106.834  24.696  35.883  0.00  0.00    +0.332 C 
ATOM     14  O   UNL     1     106.758  25.411  36.874  0.00  0.00    -0.246 OA
BRANCH  13  15
ATOM     15  O   UNL     1     107.769  23.738  35.681  0.00  0.00    -0.465 OA
ATOM     16  C   UNL     1     107.371  22.778  34.693  0.00  0.00    +0.082 C 
ENDBRANCH  13  15
ENDBRANCH  12  13
ENDBRANCH   9  11
TORSDOF 3
ENDMDL
MODEL 3
REMARK VINA RESULT:    -6.821      2.027      3.279
REMARK INTER + INTRA:          -8.215
REMARK INTER:                  -8.144
REMARK INTRA:                  -0.072
REMARK UNBOUND:                -0.198
REMARK  Name = 5.sdf
REMARK  4 active torsions:
REMARK  status: ('A' for Active; 'I' for Inactive)
REMARK    1  A    between atoms: C_9  and  C_10
REMARK    2  A    between atoms: C_11  and  C_12
REMARK    3  A    between atoms: C_12  and  O_13
REMARK    4  A    between atoms: O_13  and  C_15
REMARK                            x       y       z     vdW  Elec       q    Type
REMARK                         _______ _______ _______ _____ _____    ______ ____
ROOT
ATOM      1  C   UNL     1     105.349  25.793  34.368  0.00  0.00    -0.061 A 
ATOM      2  C   UNL     1     106.355  25.000  33.821  0.00  0.00    -0.060 A 
ATOM      3  C   UNL     1     106.250  24.526  32.514  0.00  0.00    -0.038 A 
ATOM      4  C   UNL     1     105.106  24.871  31.785  0.00  0.00    +0.047 A 
ATOM      5  C   UNL     1     104.071  25.666  32.294  0.00  0.00    +0.007 A 
ATOM      6  C   UNL     1     104.208  26.132  33.621  0.00  0.00    -0.052 A 
ATOM      7  N   UNL     1     104.765  24.541  30.496  0.00  0.00    -0.360 N 
ATOM      8  C   UNL     1     103.554  25.084  30.171  0.00  0.00    +0.010 A 
ATOM      9  C   UNL     1     103.079  25.795  31.257  0.00  0.00    +0.000 A 
ATOM     10  H   UNL     1     105.315  23.990  29.892  0.00  0.00    +0.000 HD
ENDROOT
BRANCH   9  11
ATOM     11  C   UNL     1     101.823  26.508  31.286  0.00  0.00    -0.046 C 
ATOM     12  C   UNL     1     101.151  26.798  32.420  0.00  0.00    +0.023 C 
BRANCH  12  13
ATOM     13  C   UNL     1      99.874  27.509  32.623  0.00  0.00    +0.332 C 
ATOM     14  O   UNL     1      99.588  28.480  31.936  0.00  0.00    -0.246 OA
BRANCH  13  15
ATOM     15  O   UNL     1      99.099  26.991  33.606  0.00  0.00    -0.465 OA
ATOM     16  C   UNL     1      97.821  26.552  33.126  0.00  0.00    +0.082 C 
ENDBRANCH  13  15
ENDBRANCH  12  13
ENDBRANCH   9  11
TORSDOF 3
ENDMDL
