MODEL 1
REMARK VINA RESULT:    -8.459      0.000      0.000
REMARK INTER + INTRA:         -11.544
REMARK INTER:                 -10.932
REMARK INTRA:                  -0.612
REMARK UNBOUND:                -0.612
REMARK  Name = 5b.sdf
REMARK  6 active torsions:
REMARK  status: ('A' for Active; 'I' for Inactive)
REMARK    1  A    between atoms: N_7  and  C_12
REMARK    2  A    between atoms: C_9  and  C_10
REMARK    3  A    between atoms: C_11  and  C_19
REMARK    4  A    between atoms: C_12  and  C_13
REMARK    5  A    between atoms: C_19  and  O_20
REMARK    6  A    between atoms: O_20  and  C_22
REMARK                            x       y       z     vdW  Elec       q    Type
REMARK                         _______ _______ _______ _____ _____    ______ ____
ROOT
ATOM      1  C   UNL     1     103.017  25.082  29.853  0.00  0.00    -0.061 A 
ATOM      2  C   UNL     1     104.339  24.780  30.155  0.00  0.00    -0.060 A 
ATOM      3  C   UNL     1     104.917  25.206  31.355  0.00  0.00    -0.038 A 
ATOM      4  C   UNL     1     104.126  25.941  32.256  0.00  0.00    +0.050 A 
ATOM      5  C   UNL     1     102.780  26.220  31.992  0.00  0.00    +0.007 A 
ATOM      6  C   UNL     1     102.228  25.792  30.763  0.00  0.00    -0.052 A 
ATOM      7  N   UNL     1     104.426  26.524  33.474  0.00  0.00    -0.342 N 
ATOM      8  C   UNL     1     103.293  27.094  34.013  0.00  0.00    +0.013 A 
ATOM      9  C   UNL     1     102.252  26.917  33.124  0.00  0.00    +0.000 A 
ENDROOT
BRANCH   9  10
ATOM     10  C   UNL     1     100.891  27.344  33.293  0.00  0.00    -0.046 C 
ATOM     11  C   UNL     1      99.814  26.546  33.307  0.00  0.00    +0.023 C 
BRANCH  11  12
ATOM     12  C   UNL     1      98.412  26.996  33.459  0.00  0.00    +0.332 C 
ATOM     13  O   UNL     1      97.987  27.967  32.847  0.00  0.00    -0.246 OA
BRANCH  12  14
ATOM     14  O   UNL     1      97.702  26.232  34.323  0.00  0.00    -0.465 OA
ATOM     15  C   UNL     1      96.612  26.927  34.935  0.00  0.00    +0.082 C 
ENDBRANCH  12  14
ENDBRANCH  11  12
ENDBRANCH   9  10
BRANCH   7  16
ATOM     16  C   UNL     1     105.761  26.649  34.059  0.00  0.00    +0.048 C 
BRANCH  16  17
ATOM     17  C   UNL     1     106.376  25.313  34.379  0.00  0.00    -0.025 A 
ATOM     18  C   UNL     1     107.714  25.043  34.074  0.00  0.00    -0.039 A 
ATOM     19  C   UNL     1     108.220  23.781  34.340  0.00  0.00    +0.028 A 
ATOM     20  N   UNL     1     107.501  22.786  34.898  0.00  0.00    -0.263 NA
ATOM     21  C   UNL     1     106.217  23.067  35.205  0.00  0.00    +0.028 A 
ATOM     22  C   UNL     1     105.619  24.296  34.972  0.00  0.00    -0.039 A 
ENDBRANCH  16  17
ENDBRANCH   7  16
TORSDOF 5
ENDMDL
MODEL 2
REMARK VINA RESULT:    -8.027      3.134      5.044
REMARK INTER + INTRA:         -10.985
REMARK INTER:                 -10.278
REMARK INTRA:                  -0.707
REMARK UNBOUND:                -0.612
REMARK  Name = 5b.sdf
REMARK  6 active torsions:
REMARK  status: ('A' for Active; 'I' for Inactive)
REMARK    1  A    between atoms: N_7  and  C_12
REMARK    2  A    between atoms: C_9  and  C_10
REMARK    3  A    between atoms: C_11  and  C_19
REMARK    4  A    between atoms: C_12  and  C_13
REMARK    5  A    between atoms: C_19  and  O_20
REMARK    6  A    between atoms: O_20  and  C_22
REMARK                            x       y       z     vdW  Elec       q    Type
REMARK                         _______ _______ _______ _____ _____    ______ ____
ROOT
ATOM      1  C   UNL     1     106.973  24.912  36.172  0.00  0.00    -0.061 A 
ATOM      2  C   UNL     1     107.909  23.961  35.787  0.00  0.00    -0.060 A 
ATOM      3  C   UNL     1     107.892  23.417  34.499  0.00  0.00    -0.038 A 
ATOM      4  C   UNL     1     106.909  23.861  33.597  0.00  0.00    +0.050 A 
ATOM      5  C   UNL     1     105.983  24.850  33.949  0.00  0.00    +0.007 A 
ATOM      6  C   UNL     1     106.013  25.368  35.264  0.00  0.00    -0.052 A 
ATOM      7  N   UNL     1     106.619  23.482  32.299  0.00  0.00    -0.342 N 
ATOM      8  C   UNL     1     105.588  24.254  31.805  0.00  0.00    +0.013 A 
ATOM      9  C   UNL     1     105.176  25.117  32.799  0.00  0.00    +0.000 A 
ENDROOT
BRANCH   9  10
ATOM     10  C   UNL     1     104.136  26.105  32.709  0.00  0.00    -0.046 C 
ATOM     11  C   UNL     1     102.980  26.091  33.387  0.00  0.00    +0.023 C 
BRANCH  11  12
ATOM     12  C   UNL     1     101.904  27.101  33.271  0.00  0.00    +0.332 C 
ATOM     13  O   UNL     1     101.814  28.027  34.068  0.00  0.00    -0.246 OA
BRANCH  12  14
ATOM     14  O   UNL     1     101.076  26.875  32.225  0.00  0.00    -0.465 OA
ATOM     15  C   UNL     1      99.980  27.791  32.156  0.00  0.00    +0.082 C 
ENDBRANCH  12  14
ENDBRANCH  11  12
ENDBRANCH   9  10
BRANCH   7  16
ATOM     16  C   UNL     1     107.206  22.349  31.585  0.00  0.00    +0.048 C 
BRANCH  16  17
ATOM     17  C   UNL     1     108.236  22.780  30.574  0.00  0.00    -0.025 A 
ATOM     18  C   UNL     1     108.288  22.194  29.304  0.00  0.00    -0.039 A 
ATOM     19  C   UNL     1     109.287  22.586  28.426  0.00  0.00    +0.028 A 
ATOM     20  N   UNL     1     110.214  23.522  28.715  0.00  0.00    -0.263 NA
ATOM     21  C   UNL     1     110.139  24.091  29.936  0.00  0.00    +0.028 A 
ATOM     22  C   UNL     1     109.181  23.763  30.883  0.00  0.00    -0.039 A 
ENDBRANCH  16  17
ENDBRANCH   7  16
TORSDOF 5
ENDMDL
MODEL 3
REMARK VINA RESULT:    -7.506      4.252      6.754
REMARK INTER + INTRA:         -10.312
REMARK INTER:                  -9.652
REMARK INTRA:                  -0.660
REMARK UNBOUND:                -0.612
REMARK  Name = 5b.sdf
REMARK  6 active torsions:
REMARK  status: ('A' for Active; 'I' for Inactive)
REMARK    1  A    between atoms: N_7  and  C_12
REMARK    2  A    between atoms: C_9  and  C_10
REMARK    3  A    between atoms: C_11  and  C_19
REMARK    4  A    between atoms: C_12  and  C_13
REMARK    5  A    between atoms: C_19  and  O_20
REMARK    6  A    between atoms: O_20  and  C_22
REMARK                            x       y       z     vdW  Elec       q    Type
REMARK                         _______ _______ _______ _____ _____    ______ ____
ROOT
ATOM      1  C   UNL     1     108.712  22.808  35.527  0.00  0.00    -0.061 A 
ATOM      2  C   UNL     1     109.904  22.396  34.945  0.00  0.00    -0.060 A 
ATOM      3  C   UNL     1     110.067  22.408  33.556  0.00  0.00    -0.038 A 
ATOM      4  C   UNL     1     108.997  22.856  32.760  0.00  0.00    +0.050 A 
ATOM      5  C   UNL     1     107.803  23.316  33.327  0.00  0.00    +0.007 A 
ATOM      6  C   UNL     1     107.661  23.275  34.733  0.00  0.00    -0.052 A 
ATOM      7  N   UNL     1     108.848  22.937  31.387  0.00  0.00    -0.342 N 
ATOM      8  C   UNL     1     107.628  23.501  31.081  0.00  0.00    +0.013 A 
ATOM      9  C   UNL     1     106.958  23.755  32.260  0.00  0.00    +0.000 A 
ENDROOT
BRANCH   9  10
ATOM     10  C   UNL     1     105.658  24.352  32.404  0.00  0.00    -0.046 C 
ATOM     11  C   UNL     1     104.853  24.730  31.401  0.00  0.00    +0.023 C 
BRANCH  11  12
ATOM     12  C   UNL     1     103.525  25.363  31.557  0.00  0.00    +0.332 C 
ATOM     13  O   UNL     1     102.893  25.760  30.587  0.00  0.00    -0.246 OA
BRANCH  12  14
ATOM     14  O   UNL     1     103.126  25.444  32.848  0.00  0.00    -0.465 OA
ATOM     15  C   UNL     1     102.999  26.787  33.323  0.00  0.00    +0.082 C 
ENDBRANCH  12  14
ENDBRANCH  11  12
ENDBRANCH   9  10
BRANCH   7  16
ATOM     16  C   UNL     1     109.768  22.390  30.391  0.00  0.00    +0.048 C 
BRANCH  16  17
ATOM     17  C   UNL     1     110.033  23.353  29.264  0.00  0.00    -0.025 A 
ATOM     18  C   UNL     1     109.821  22.980  27.933  0.00  0.00    -0.039 A 
ATOM     19  C   UNL     1     110.130  23.883  26.928  0.00  0.00    +0.028 A 
ATOM     20  N   UNL     1     110.611  25.122  27.154  0.00  0.00    -0.263 NA
ATOM     21  C   UNL     1     110.792  25.474  28.444  0.00  0.00    +0.028 A 
ATOM     22  C   UNL     1     110.518  24.640  29.517  0.00  0.00    -0.039 A 
ENDBRANCH  16  17
ENDBRANCH   7  16
TORSDOF 5
ENDMDL
