MODEL 1
REMARK VINA RESULT:    -8.869      0.000      0.000
REMARK INTER + INTRA:         -12.172
REMARK INTER:                 -11.462
REMARK INTRA:                  -0.710
REMARK UNBOUND:                -0.710
REMARK  Name = 5c.sdf
REMARK  6 active torsions:
REMARK  status: ('A' for Active; 'I' for Inactive)
REMARK    1  A    between atoms: N_7  and  C_12
REMARK    2  A    between atoms: C_9  and  C_10
REMARK    3  A    between atoms: C_11  and  C_20
REMARK    4  A    between atoms: C_12  and  C_13
REMARK    5  A    between atoms: C_20  and  O_21
REMARK    6  A    between atoms: O_21  and  C_23
REMARK                            x       y       z     vdW  Elec       q    Type
REMARK                         _______ _______ _______ _____ _____    ______ ____
ROOT
ATOM      1  C   UNL     1     103.005  25.050  29.916  0.00  0.00    -0.061 A 
ATOM      2  C   UNL     1     104.344  24.815  30.204  0.00  0.00    -0.060 A 
ATOM      3  C   UNL     1     104.926  25.316  31.373  0.00  0.00    -0.038 A 
ATOM      4  C   UNL     1     104.123  26.060  32.255  0.00  0.00    +0.050 A 
ATOM      5  C   UNL     1     102.761  26.277  32.004  0.00  0.00    +0.007 A 
ATOM      6  C   UNL     1     102.207  25.769  30.809  0.00  0.00    -0.052 A 
ATOM      7  N   UNL     1     104.419  26.703  33.444  0.00  0.00    -0.342 N 
ATOM      8  C   UNL     1     103.276  27.263  33.971  0.00  0.00    +0.013 A 
ATOM      9  C   UNL     1     102.230  27.010  33.111  0.00  0.00    +0.000 A 
ENDROOT
BRANCH   9  10
ATOM     10  C   UNL     1     100.862  27.405  33.289  0.00  0.00    -0.046 C 
ATOM     11  C   UNL     1      99.802  26.579  33.282  0.00  0.00    +0.023 C 
BRANCH  11  12
ATOM     12  C   UNL     1      98.394  26.993  33.450  0.00  0.00    +0.332 C 
ATOM     13  O   UNL     1      97.941  27.966  32.863  0.00  0.00    -0.246 OA
BRANCH  12  14
ATOM     14  O   UNL     1      97.706  26.188  34.295  0.00  0.00    -0.465 OA
ATOM     15  C   UNL     1      96.624  26.848  34.960  0.00  0.00    +0.082 C 
ENDBRANCH  12  14
ENDBRANCH  11  12
ENDBRANCH   9  10
BRANCH   7  16
ATOM     16  C   UNL     1     105.749  26.845  34.039  0.00  0.00    +0.048 C 
BRANCH  16  17
ATOM     17  C   UNL     1     106.311  25.507  34.451  0.00  0.00    -0.028 A 
ATOM     18  C   UNL     1     107.612  25.136  34.078  0.00  0.00    -0.055 A 
ATOM     19  C   UNL     1     108.076  23.842  34.321  0.00  0.00    -0.043 A 
ATOM     20  C   UNL     1     107.251  22.917  34.956  0.00  0.00    +0.041 A 
ATOM     21  C   UNL     1     105.982  23.291  35.394  0.00  0.00    -0.043 A 
ATOM     22  C   UNL     1     105.514  24.583  35.146  0.00  0.00    -0.055 A 
ATOM     23 CL   UNL     1     107.789  21.298  35.173  0.00  0.00    -0.084 Cl
ENDBRANCH  16  17
ENDBRANCH   7  16
TORSDOF 5
ENDMDL
MODEL 2
REMARK VINA RESULT:    -8.481      3.593      5.367
REMARK INTER + INTRA:         -11.671
REMARK INTER:                 -10.953
REMARK INTRA:                  -0.717
REMARK UNBOUND:                -0.710
REMARK  Name = 5c.sdf
REMARK  6 active torsions:
REMARK  status: ('A' for Active; 'I' for Inactive)
REMARK    1  A    between atoms: N_7  and  C_12
REMARK    2  A    between atoms: C_9  and  C_10
REMARK    3  A    between atoms: C_11  and  C_20
REMARK    4  A    between atoms: C_12  and  C_13
REMARK    5  A    between atoms: C_20  and  O_21
REMARK    6  A    between atoms: O_21  and  C_23
REMARK                            x       y       z     vdW  Elec       q    Type
REMARK                         _______ _______ _______ _____ _____    ______ ____
ROOT
ATOM      1  C   UNL     1     106.969  24.968  36.156  0.00  0.00    -0.061 A 
ATOM      2  C   UNL     1     107.919  24.016  35.806  0.00  0.00    -0.060 A 
ATOM      3  C   UNL     1     107.925  23.444  34.530  0.00  0.00    -0.038 A 
ATOM      4  C   UNL     1     106.950  23.858  33.606  0.00  0.00    +0.050 A 
ATOM      5  C   UNL     1     106.007  24.844  33.924  0.00  0.00    +0.007 A 
ATOM      6  C   UNL     1     106.018  25.393  35.225  0.00  0.00    -0.052 A 
ATOM      7  N   UNL     1     106.685  23.452  32.309  0.00  0.00    -0.342 N 
ATOM      8  C   UNL     1     105.646  24.193  31.790  0.00  0.00    +0.013 A 
ATOM      9  C   UNL     1     105.209  25.071  32.759  0.00  0.00    +0.000 A 
ENDROOT
BRANCH   9  10
ATOM     10  C   UNL     1     104.154  26.034  32.627  0.00  0.00    -0.046 C 
ATOM     11  C   UNL     1     103.055  26.099  33.397  0.00  0.00    +0.023 C 
BRANCH  11  12
ATOM     12  C   UNL     1     101.963  27.083  33.247  0.00  0.00    +0.332 C 
ATOM     13  O   UNL     1     101.833  28.015  34.029  0.00  0.00    -0.246 OA
BRANCH  12  14
ATOM     14  O   UNL     1     101.168  26.830  32.180  0.00  0.00    -0.465 OA
ATOM     15  C   UNL     1     100.027  27.690  32.100  0.00  0.00    +0.082 C 
ENDBRANCH  12  14
ENDBRANCH  11  12
ENDBRANCH   9  10
BRANCH   7  16
ATOM     16  C   UNL     1     107.343  22.356  31.598  0.00  0.00    +0.048 C 
BRANCH  16  17
ATOM     17  C   UNL     1     108.275  22.876  30.531  0.00  0.00    -0.028 A 
ATOM     18  C   UNL     1     108.277  22.309  29.248  0.00  0.00    -0.055 A 
ATOM     19  C   UNL     1     109.243  22.679  28.311  0.00  0.00    -0.043 A 
ATOM     20  C   UNL     1     110.202  23.632  28.643  0.00  0.00    +0.041 A 
ATOM     21  C   UNL     1     110.172  24.255  29.889  0.00  0.00    -0.043 A 
ATOM     22  C   UNL     1     109.210  23.881  30.830  0.00  0.00    -0.055 A 
ATOM     23 CL   UNL     1     111.446  24.021  27.522  0.00  0.00    -0.084 Cl
ENDBRANCH  16  17
ENDBRANCH   7  16
TORSDOF 5
ENDMDL
MODEL 3
REMARK VINA RESULT:    -7.840      4.479      7.511
REMARK INTER + INTRA:         -10.841
REMARK INTER:                 -10.181
REMARK INTRA:                  -0.660
REMARK UNBOUND:                -0.710
REMARK  Name = 5c.sdf
REMARK  6 active torsions:
REMARK  status: ('A' for Active; 'I' for Inactive)
REMARK    1  A    between atoms: N_7  and  C_12
REMARK    2  A    between atoms: C_9  and  C_10
REMARK    3  A    between atoms: C_11  and  C_20
REMARK    4  A    between atoms: C_12  and  C_13
REMARK    5  A    between atoms: C_20  and  O_21
REMARK    6  A    between atoms: O_21  and  C_23
REMARK                            x       y       z     vdW  Elec       q    Type
REMARK                         _______ _______ _______ _____ _____    ______ ____
ROOT
ATOM      1  C   UNL     1     104.202  24.187  29.730  0.00  0.00    -0.061 A 
ATOM      2  C   UNL     1     103.400  25.316  29.619  0.00  0.00    -0.060 A 
ATOM      3  C   UNL     1     103.195  26.162  30.712  0.00  0.00    -0.038 A 
ATOM      4  C   UNL     1     103.825  25.847  31.930  0.00  0.00    +0.050 A 
ATOM      5  C   UNL     1     104.669  24.736  32.055  0.00  0.00    +0.007 A 
ATOM      6  C   UNL     1     104.845  23.893  30.935  0.00  0.00    -0.052 A 
ATOM      7  N   UNL     1     103.781  26.460  33.170  0.00  0.00    -0.342 N 
ATOM      8  C   UNL     1     104.614  25.801  34.047  0.00  0.00    +0.013 A 
ATOM      9  C   UNL     1     105.187  24.736  33.388  0.00  0.00    +0.000 A 
ENDROOT
BRANCH   9  10
ATOM     10  C   UNL     1     106.128  23.799  33.932  0.00  0.00    -0.046 C 
ATOM     11  C   UNL     1     107.464  23.936  33.919  0.00  0.00    +0.023 C 
BRANCH  11  12
ATOM     12  C   UNL     1     108.430  22.962  34.467  0.00  0.00    +0.332 C 
ATOM     13  O   UNL     1     108.071  22.054  35.204  0.00  0.00    -0.246 OA
BRANCH  12  14
ATOM     14  O   UNL     1     109.701  23.194  34.061  0.00  0.00    -0.465 OA
ATOM     15  C   UNL     1     110.625  22.178  34.463  0.00  0.00    +0.082 C 
ENDBRANCH  12  14
ENDBRANCH  11  12
ENDBRANCH   9  10
BRANCH   7  16
ATOM     16  C   UNL     1     102.932  27.593  33.542  0.00  0.00    +0.048 C 
BRANCH  16  17
ATOM     17  C   UNL     1     101.475  27.289  33.297  0.00  0.00    -0.028 A 
ATOM     18  C   UNL     1     100.741  28.030  32.358  0.00  0.00    -0.055 A 
ATOM     19  C   UNL     1      99.360  27.859  32.244  0.00  0.00    -0.043 A 
ATOM     20  C   UNL     1      98.707  26.933  33.053  0.00  0.00    +0.041 A 
ATOM     21  C   UNL     1      99.431  26.141  33.941  0.00  0.00    -0.043 A 
ATOM     22  C   UNL     1     100.811  26.316  34.062  0.00  0.00    -0.055 A 
ATOM     23 CL   UNL     1      96.995  26.787  32.976  0.00  0.00    -0.084 Cl
ENDBRANCH  16  17
ENDBRANCH   7  16
TORSDOF 5
ENDMDL
