MODEL 1
REMARK VINA RESULT:    -7.302      0.000      0.000
REMARK INTER + INTRA:          -9.507
REMARK INTER:                  -9.222
REMARK INTRA:                  -0.285
REMARK UNBOUND:                -0.285
REMARK  Name = 6.sdf
REMARK  6 active torsions:
REMARK  status: ('A' for Active; 'I' for Inactive)
REMARK    1  A    between atoms: C_9  and  C_10
REMARK    2  A    between atoms: C_10  and  C_11
REMARK    3  A    between atoms: C_11  and  C_12
REMARK    4  A    between atoms: C_11  and  N_15
REMARK    5  A    between atoms: C_12  and  O_13
REMARK    6  A    between atoms: O_13  and  C_16
REMARK                            x       y       z     vdW  Elec       q    Type
REMARK                         _______ _______ _______ _____ _____    ______ ____
ROOT
ATOM      1  C   UNL     1     100.691  28.032  33.625  0.00  0.00    -0.061 A 
ATOM      2  C   UNL     1     100.077  27.617  32.446  0.00  0.00    -0.060 A 
ATOM      3  C   UNL     1     100.768  26.832  31.519  0.00  0.00    -0.038 A 
ATOM      4  C   UNL     1     102.082  26.464  31.827  0.00  0.00    +0.047 A 
ATOM      5  C   UNL     1     102.720  26.843  33.011  0.00  0.00    +0.003 A 
ATOM      6  C   UNL     1     102.008  27.656  33.918  0.00  0.00    -0.052 A 
ATOM      7  N   UNL     1     102.974  25.703  31.111  0.00  0.00    -0.360 N 
ATOM      8  C   UNL     1     104.138  25.551  31.812  0.00  0.00    +0.006 A 
ATOM      9  C   UNL     1     104.022  26.237  33.008  0.00  0.00    -0.020 A 
ATOM     10  H   UNL     1     102.801  25.323  30.220  0.00  0.00    +0.000 HD
ENDROOT
BRANCH   9  11
ATOM     11  C   UNL     1     105.048  26.281  34.104  0.00  0.00    -0.000 C 
BRANCH  11  12
ATOM     12  C   UNL     1     105.830  24.975  34.297  0.00  0.00    +0.107 C 
BRANCH  12  13
ATOM     13  N   UNL     1     104.973  23.967  34.986  0.00  0.00    -0.318 N 
ATOM     14  H   UNL     1     105.423  23.675  35.853  0.00  0.00    +0.000 HD
ATOM     15  H   UNL     1     104.846  23.158  34.379  0.00  0.00    +0.000 HD
ATOM     16  H   UNL     1     104.065  24.380  35.197  0.00  0.00    +0.000 HD
ENDBRANCH  12  13
BRANCH  12  17
ATOM     17  C   UNL     1     107.086  25.249  35.137  0.00  0.00    +0.324 C 
ATOM     18  O   UNL     1     107.132  25.139  36.356  0.00  0.00    -0.249 OA
BRANCH  17  19
ATOM     19  O   UNL     1     108.120  25.619  34.332  0.00  0.00    -0.467 OA
ATOM     20  C   UNL     1     108.543  24.663  33.358  0.00  0.00    +0.082 C 
ENDBRANCH  17  19
ENDBRANCH  12  17
ENDBRANCH  11  12
ENDBRANCH   9  11
TORSDOF 5
ENDMDL
MODEL 2
REMARK VINA RESULT:    -7.229      1.841      2.408
REMARK INTER + INTRA:          -9.416
REMARK INTER:                  -9.184
REMARK INTRA:                  -0.232
REMARK UNBOUND:                -0.285
REMARK  Name = 6.sdf
REMARK  6 active torsions:
REMARK  status: ('A' for Active; 'I' for Inactive)
REMARK    1  A    between atoms: C_9  and  C_10
REMARK    2  A    between atoms: C_10  and  C_11
REMARK    3  A    between atoms: C_11  and  C_12
REMARK    4  A    between atoms: C_11  and  N_15
REMARK    5  A    between atoms: C_12  and  O_13
REMARK    6  A    between atoms: O_13  and  C_16
REMARK                            x       y       z     vdW  Elec       q    Type
REMARK                         _______ _______ _______ _____ _____    ______ ____
ROOT
ATOM      1  C   UNL     1     101.619  27.484  33.909  0.00  0.00    -0.061 A 
ATOM      2  C   UNL     1     100.606  27.671  32.973  0.00  0.00    -0.060 A 
ATOM      3  C   UNL     1     100.718  27.144  31.683  0.00  0.00    -0.038 A 
ATOM      4  C   UNL     1     101.868  26.410  31.377  0.00  0.00    +0.047 A 
ATOM      5  C   UNL     1     102.893  26.182  32.299  0.00  0.00    +0.003 A 
ATOM      6  C   UNL     1     102.765  26.747  33.587  0.00  0.00    -0.052 A 
ATOM      7  N   UNL     1     102.228  25.784  30.208  0.00  0.00    -0.360 N 
ATOM      8  C   UNL     1     103.421  25.135  30.366  0.00  0.00    +0.006 A 
ATOM      9  C   UNL     1     103.868  25.347  31.657  0.00  0.00    -0.020 A 
ATOM     10  H   UNL     1     101.703  25.801  29.376  0.00  0.00    +0.000 HD
ENDROOT
BRANCH   9  11
ATOM     11  C   UNL     1     105.110  24.763  32.269  0.00  0.00    -0.000 C 
BRANCH  11  12
ATOM     12  C   UNL     1     105.879  23.802  31.354  0.00  0.00    +0.107 C 
BRANCH  12  13
ATOM     13  N   UNL     1     105.324  22.424  31.483  0.00  0.00    -0.318 N 
ATOM     14  H   UNL     1     105.251  22.178  32.470  0.00  0.00    +0.000 HD
ATOM     15  H   UNL     1     105.942  21.763  31.012  0.00  0.00    +0.000 HD
ATOM     16  H   UNL     1     104.399  22.388  31.055  0.00  0.00    +0.000 HD
ENDBRANCH  12  13
BRANCH  12  17
ATOM     17  C   UNL     1     107.364  23.801  31.743  0.00  0.00    +0.324 C 
ATOM     18  O   UNL     1     108.276  23.541  30.968  0.00  0.00    -0.249 OA
BRANCH  17  19
ATOM     19  O   UNL     1     107.508  24.134  33.055  0.00  0.00    -0.467 OA
ATOM     20  C   UNL     1     108.687  24.864  33.402  0.00  0.00    +0.082 C 
ENDBRANCH  17  19
ENDBRANCH  12  17
ENDBRANCH  11  12
ENDBRANCH   9  11
TORSDOF 5
ENDMDL
MODEL 3
REMARK VINA RESULT:    -6.776      2.152      3.138
REMARK INTER + INTRA:          -8.844
REMARK INTER:                  -8.537
REMARK INTRA:                  -0.307
REMARK UNBOUND:                -0.285
REMARK  Name = 6.sdf
REMARK  6 active torsions:
REMARK  status: ('A' for Active; 'I' for Inactive)
REMARK    1  A    between atoms: C_9  and  C_10
REMARK    2  A    between atoms: C_10  and  C_11
REMARK    3  A    between atoms: C_11  and  C_12
REMARK    4  A    between atoms: C_11  and  N_15
REMARK    5  A    between atoms: C_12  and  O_13
REMARK    6  A    between atoms: O_13  and  C_16
REMARK                            x       y       z     vdW  Elec       q    Type
REMARK                         _______ _______ _______ _____ _____    ______ ____
ROOT
ATOM      1  C   UNL     1     102.940  25.658  30.328  0.00  0.00    -0.061 A 
ATOM      2  C   UNL     1     102.035  26.336  31.141  0.00  0.00    -0.060 A 
ATOM      3  C   UNL     1     102.296  26.521  32.501  0.00  0.00    -0.038 A 
ATOM      4  C   UNL     1     103.501  26.022  33.007  0.00  0.00    +0.047 A 
ATOM      5  C   UNL     1     104.442  25.359  32.215  0.00  0.00    +0.003 A 
ATOM      6  C   UNL     1     104.142  25.165  30.850  0.00  0.00    -0.052 A 
ATOM      7  N   UNL     1     104.007  26.070  34.283  0.00  0.00    -0.360 N 
ATOM      8  C   UNL     1     105.249  25.501  34.323  0.00  0.00    +0.006 A 
ATOM      9  C   UNL     1     105.566  25.052  33.054  0.00  0.00    -0.020 A 
ATOM     10  H   UNL     1     103.542  26.458  35.059  0.00  0.00    +0.000 HD
ENDROOT
BRANCH   9  11
ATOM     11  C   UNL     1     106.864  24.417  32.639  0.00  0.00    -0.000 C 
BRANCH  11  12
ATOM     12  C   UNL     1     108.027  24.654  33.611  0.00  0.00    +0.107 C 
BRANCH  12  13
ATOM     13  N   UNL     1     109.237  25.092  32.858  0.00  0.00    -0.318 N 
ATOM     14  H   UNL     1     110.047  24.562  33.178  0.00  0.00    +0.000 HD
ATOM     15  H   UNL     1     109.396  26.086  33.017  0.00  0.00    +0.000 HD
ATOM     16  H   UNL     1     109.096  24.926  31.861  0.00  0.00    +0.000 HD
ENDBRANCH  12  13
BRANCH  12  17
ATOM     17  C   UNL     1     108.331  23.356  34.373  0.00  0.00    +0.324 C 
ATOM     18  O   UNL     1     107.510  22.753  35.053  0.00  0.00    -0.249 OA
BRANCH  17  19
ATOM     19  O   UNL     1     109.625  22.985  34.174  0.00  0.00    -0.467 OA
ATOM     20  C   UNL     1     110.193  22.110  35.151  0.00  0.00    +0.082 C 
ENDBRANCH  17  19
ENDBRANCH  12  17
ENDBRANCH  11  12
ENDBRANCH   9  11
TORSDOF 5
ENDMDL
