MODEL 1
REMARK VINA RESULT:    -8.175      0.000      0.000
REMARK INTER + INTRA:         -11.362
REMARK INTER:                 -10.564
REMARK INTRA:                  -0.798
REMARK UNBOUND:                -0.798
REMARK  Name = 7a.sdf
REMARK  6 active torsions:
REMARK  status: ('A' for Active; 'I' for Inactive)
REMARK    1  A    between atoms: N_7  and  C_12
REMARK    2  A    between atoms: C_9  and  C_10
REMARK    3  A    between atoms: C_10  and  C_11
REMARK    4  A    between atoms: C_11  and  O_21
REMARK    5  A    between atoms: C_12  and  C_13
REMARK    6  A    between atoms: O_21  and  C_22
REMARK                            x       y       z     vdW  Elec       q    Type
REMARK                         _______ _______ _______ _____ _____    ______ ____
ROOT
ATOM      1  C   UNL     1     107.316  24.094  35.511  0.00  0.00    -0.061 A 
ATOM      2  C   UNL     1     106.535  25.224  35.733  0.00  0.00    -0.060 A 
ATOM      3  C   UNL     1     105.647  25.693  34.752  0.00  0.00    -0.038 A 
ATOM      4  C   UNL     1     105.585  25.014  33.521  0.00  0.00    +0.050 A 
ATOM      5  C   UNL     1     106.320  23.838  33.306  0.00  0.00    +0.004 A 
ATOM      6  C   UNL     1     107.195  23.383  34.317  0.00  0.00    -0.052 A 
ATOM      7  N   UNL     1     104.905  25.279  32.340  0.00  0.00    -0.342 N 
ATOM      8  C   UNL     1     105.108  24.248  31.453  0.00  0.00    +0.010 A 
ATOM      9  C   UNL     1     105.966  23.326  32.018  0.00  0.00    -0.012 A 
ENDROOT
BRANCH   9  10
ATOM     10  C   UNL     1     106.418  22.042  31.394  0.00  0.00    +0.072 C 
BRANCH  10  11
ATOM     11  C   UNL     1     107.683  22.170  30.569  0.00  0.00    +0.311 C 
ATOM     12  O   UNL     1     107.744  22.250  29.345  0.00  0.00    -0.250 OA
BRANCH  11  13
ATOM     13  O   UNL     1     108.772  22.175  31.394  0.00  0.00    -0.468 OA
ATOM     14  C   UNL     1     109.699  23.230  31.112  0.00  0.00    +0.082 C 
ENDBRANCH  11  13
ENDBRANCH  10  11
ENDBRANCH   9  10
BRANCH   7  15
ATOM     15  C   UNL     1     104.184  26.501  31.972  0.00  0.00    +0.048 C 
BRANCH  15  16
ATOM     16  C   UNL     1     102.716  26.425  32.320  0.00  0.00    -0.028 A 
ATOM     17  C   UNL     1     101.752  26.535  31.310  0.00  0.00    -0.056 A 
ATOM     18  C   UNL     1     100.402  26.684  31.633  0.00  0.00    -0.047 A 
ATOM     19  C   UNL     1     100.009  26.686  32.969  0.00  0.00    +0.018 A 
ATOM     20  C   UNL     1     100.940  26.462  33.980  0.00  0.00    -0.047 A 
ATOM     21  C   UNL     1     102.292  26.329  33.655  0.00  0.00    -0.056 A 
ATOM     22 BR   UNL     1      98.214  27.078  33.415  0.00  0.00    -0.050 Br
ENDBRANCH  15  16
ENDBRANCH   7  15
TORSDOF 5
ENDMDL
MODEL 2
REMARK VINA RESULT:    -8.119      3.097      5.869
REMARK INTER + INTRA:         -11.290
REMARK INTER:                 -10.828
REMARK INTRA:                  -0.462
REMARK UNBOUND:                -0.798
REMARK  Name = 7a.sdf
REMARK  6 active torsions:
REMARK  status: ('A' for Active; 'I' for Inactive)
REMARK    1  A    between atoms: N_7  and  C_12
REMARK    2  A    between atoms: C_9  and  C_10
REMARK    3  A    between atoms: C_10  and  C_11
REMARK    4  A    between atoms: C_11  and  O_21
REMARK    5  A    between atoms: C_12  and  C_13
REMARK    6  A    between atoms: O_21  and  C_22
REMARK                            x       y       z     vdW  Elec       q    Type
REMARK                         _______ _______ _______ _____ _____    ______ ____
ROOT
ATOM      1  C   UNL     1     100.211  27.341  32.125  0.00  0.00    -0.061 A 
ATOM      2  C   UNL     1     100.590  27.889  33.345  0.00  0.00    -0.060 A 
ATOM      3  C   UNL     1     101.872  27.666  33.871  0.00  0.00    -0.038 A 
ATOM      4  C   UNL     1     102.761  26.845  33.152  0.00  0.00    +0.050 A 
ATOM      5  C   UNL     1     102.415  26.337  31.890  0.00  0.00    +0.004 A 
ATOM      6  C   UNL     1     101.122  26.589  31.381  0.00  0.00    -0.052 A 
ATOM      7  N   UNL     1     104.028  26.358  33.442  0.00  0.00    -0.342 N 
ATOM      8  C   UNL     1     104.513  25.665  32.358  0.00  0.00    +0.010 A 
ATOM      9  C   UNL     1     103.551  25.642  31.368  0.00  0.00    -0.012 A 
ENDROOT
BRANCH   9  10
ATOM     10  C   UNL     1     103.692  25.016  30.015  0.00  0.00    +0.072 C 
BRANCH  10  11
ATOM     11  C   UNL     1     104.046  23.543  30.051  0.00  0.00    +0.311 C 
ATOM     12  O   UNL     1     103.262  22.615  30.230  0.00  0.00    -0.250 OA
BRANCH  11  13
ATOM     13  O   UNL     1     105.390  23.389  29.862  0.00  0.00    -0.468 OA
ATOM     14  C   UNL     1     106.038  22.672  30.919  0.00  0.00    +0.082 C 
ENDBRANCH  11  13
ENDBRANCH  10  11
ENDBRANCH   9  10
BRANCH   7  15
ATOM     15  C   UNL     1     104.740  26.411  34.723  0.00  0.00    +0.048 C 
BRANCH  15  16
ATOM     16  C   UNL     1     105.986  25.555  34.719  0.00  0.00    -0.028 A 
ATOM     17  C   UNL     1     107.175  26.056  34.175  0.00  0.00    -0.056 A 
ATOM     18  C   UNL     1     108.268  25.214  33.966  0.00  0.00    -0.047 A 
ATOM     19  C   UNL     1     108.186  23.874  34.337  0.00  0.00    +0.018 A 
ATOM     20  C   UNL     1     107.053  23.387  34.984  0.00  0.00    -0.047 A 
ATOM     21  C   UNL     1     105.955  24.229  35.177  0.00  0.00    -0.056 A 
ATOM     22 BR   UNL     1     109.590  22.691  33.882  0.00  0.00    -0.050 Br
ENDBRANCH  15  16
ENDBRANCH   7  15
TORSDOF 5
ENDMDL
MODEL 3
REMARK VINA RESULT:    -7.786      4.188      6.986
REMARK INTER + INTRA:         -10.859
REMARK INTER:                 -10.827
REMARK INTRA:                  -0.032
REMARK UNBOUND:                -0.798
REMARK  Name = 7a.sdf
REMARK  6 active torsions:
REMARK  status: ('A' for Active; 'I' for Inactive)
REMARK    1  A    between atoms: N_7  and  C_12
REMARK    2  A    between atoms: C_9  and  C_10
REMARK    3  A    between atoms: C_10  and  C_11
REMARK    4  A    between atoms: C_11  and  O_21
REMARK    5  A    between atoms: C_12  and  C_13
REMARK    6  A    between atoms: O_21  and  C_22
REMARK                            x       y       z     vdW  Elec       q    Type
REMARK                         _______ _______ _______ _____ _____    ______ ____
ROOT
ATOM      1  C   UNL     1     104.485  23.574  29.871  0.00  0.00    -0.061 A 
ATOM      2  C   UNL     1     105.550  23.531  30.765  0.00  0.00    -0.060 A 
ATOM      3  C   UNL     1     105.585  24.371  31.889  0.00  0.00    -0.038 A 
ATOM      4  C   UNL     1     104.532  25.287  32.078  0.00  0.00    +0.050 A 
ATOM      5  C   UNL     1     103.422  25.299  31.219  0.00  0.00    +0.004 A 
ATOM      6  C   UNL     1     103.410  24.433  30.104  0.00  0.00    -0.052 A 
ATOM      7  N   UNL     1     104.328  26.298  33.006  0.00  0.00    -0.342 N 
ATOM      8  C   UNL     1     103.084  26.852  32.815  0.00  0.00    +0.010 A 
ATOM      9  C   UNL     1     102.483  26.250  31.728  0.00  0.00    -0.012 A 
ENDROOT
BRANCH   9  10
ATOM     10  C   UNL     1     101.110  26.542  31.204  0.00  0.00    +0.072 C 
BRANCH  10  11
ATOM     11  C   UNL     1     100.213  27.258  32.193  0.00  0.00    +0.311 C 
ATOM     12  O   UNL     1      99.857  28.432  32.129  0.00  0.00    -0.250 OA
BRANCH  11  13
ATOM     13  O   UNL     1      99.854  26.400  33.193  0.00  0.00    -0.468 OA
ATOM     14  C   UNL     1      98.503  26.571  33.637  0.00  0.00    +0.082 C 
ENDBRANCH  11  13
ENDBRANCH  10  11
ENDBRANCH   9  10
BRANCH   7  15
ATOM     15  C   UNL     1     105.289  26.842  33.971  0.00  0.00    +0.048 C 
BRANCH  15  16
ATOM     16  C   UNL     1     106.263  25.794  34.458  0.00  0.00    -0.028 A 
ATOM     17  C   UNL     1     107.595  25.825  34.027  0.00  0.00    -0.056 A 
ATOM     18  C   UNL     1     108.449  24.753  34.291  0.00  0.00    -0.047 A 
ATOM     19  C   UNL     1     107.982  23.662  35.019  0.00  0.00    +0.018 A 
ATOM     20  C   UNL     1     106.696  23.667  35.553  0.00  0.00    -0.047 A 
ATOM     21  C   UNL     1     105.838  24.734  35.275  0.00  0.00    -0.056 A 
ATOM     22 BR   UNL     1     109.073  22.130  35.212  0.00  0.00    -0.050 Br
ENDBRANCH  15  16
ENDBRANCH   7  15
TORSDOF 5
ENDMDL
