MODEL 1
REMARK VINA RESULT:    -9.008      0.000      0.000
REMARK INTER + INTRA:         -10.923
REMARK INTER:                 -10.588
REMARK INTRA:                  -0.336
REMARK UNBOUND:                -0.336
REMARK  Name = 9.sdf
REMARK  3 active torsions:
REMARK  status: ('A' for Active; 'I' for Inactive)
REMARK    1  A    between atoms: C_9  and  C_10
REMARK    2  A    between atoms: C_11  and  C_12
REMARK    3  A    between atoms: C_12  and  C_13
REMARK                            x       y       z     vdW  Elec       q    Type
REMARK                         _______ _______ _______ _____ _____    ______ ____
ROOT
ATOM      1  C   UNL     1     100.905  27.780  33.701  0.00  0.00    -0.061 A 
ATOM      2  C   UNL     1     100.012  27.741  32.636  0.00  0.00    -0.060 A 
ATOM      3  C   UNL     1     100.348  27.100  31.441  0.00  0.00    -0.038 A 
ATOM      4  C   UNL     1     101.607  26.492  31.357  0.00  0.00    +0.047 A 
ATOM      5  C   UNL     1     102.525  26.493  32.411  0.00  0.00    +0.007 A 
ATOM      6  C   UNL     1     102.161  27.168  33.600  0.00  0.00    -0.052 A 
ATOM      7  N   UNL     1     102.191  25.816  30.310  0.00  0.00    -0.360 N 
ATOM      8  C   UNL     1     103.447  25.393  30.657  0.00  0.00    +0.010 A 
ATOM      9  C   UNL     1     103.678  25.768  31.962  0.00  0.00    +0.000 A 
ATOM     10  H   UNL     1     101.767  25.659  29.436  0.00  0.00    +0.000 HD
ENDROOT
BRANCH   9  11
ATOM     11  C   UNL     1     104.892  25.458  32.653  0.00  0.00    -0.049 C 
ATOM     12  C   UNL     1     105.381  26.166  33.681  0.00  0.00    -0.014 C 
BRANCH  12  13
ATOM     13  C   UNL     1     106.671  25.818  34.330  0.00  0.00    +0.186 C 
ATOM     14  O   UNL     1     107.502  26.663  34.639  0.00  0.00    -0.287 OA
BRANCH  13  15
ATOM     15  C   UNL     1     106.923  24.368  34.553  0.00  0.00    +0.022 A 
ATOM     16  C   UNL     1     108.139  23.813  34.143  0.00  0.00    -0.051 A 
ATOM     17  C   UNL     1     108.378  22.448  34.325  0.00  0.00    -0.061 A 
ATOM     18  C   UNL     1     107.413  21.641  34.929  0.00  0.00    -0.062 A 
ATOM     19  C   UNL     1     106.212  22.195  35.365  0.00  0.00    -0.061 A 
ATOM     20  C   UNL     1     105.968  23.557  35.184  0.00  0.00    -0.051 A 
ENDBRANCH  13  15
ENDBRANCH  12  13
ENDBRANCH   9  11
TORSDOF 3
ENDMDL
MODEL 2
REMARK VINA RESULT:    -8.930      2.890      7.292
REMARK INTER + INTRA:         -10.832
REMARK INTER:                 -10.380
REMARK INTRA:                  -0.452
REMARK UNBOUND:                -0.336
REMARK  Name = 9.sdf
REMARK  3 active torsions:
REMARK  status: ('A' for Active; 'I' for Inactive)
REMARK    1  A    between atoms: C_9  and  C_10
REMARK    2  A    between atoms: C_11  and  C_12
REMARK    3  A    between atoms: C_12  and  C_13
REMARK                            x       y       z     vdW  Elec       q    Type
REMARK                         _______ _______ _______ _____ _____    ______ ____
ROOT
ATOM      1  C   UNL     1     105.208  25.810  34.341  0.00  0.00    -0.061 A 
ATOM      2  C   UNL     1     106.091  24.901  33.768  0.00  0.00    -0.060 A 
ATOM      3  C   UNL     1     105.872  24.402  32.482  0.00  0.00    -0.038 A 
ATOM      4  C   UNL     1     104.742  24.855  31.788  0.00  0.00    +0.047 A 
ATOM      5  C   UNL     1     103.842  25.782  32.321  0.00  0.00    +0.007 A 
ATOM      6  C   UNL     1     104.083  26.252  33.634  0.00  0.00    -0.052 A 
ATOM      7  N   UNL     1     104.286  24.522  30.533  0.00  0.00    -0.360 N 
ATOM      8  C   UNL     1     103.128  25.197  30.252  0.00  0.00    +0.010 A 
ATOM      9  C   UNL     1     102.837  26.010  31.324  0.00  0.00    +0.000 A 
ATOM     10  H   UNL     1     104.729  23.888  29.924  0.00  0.00    +0.000 HD
ENDROOT
BRANCH   9  11
ATOM     11  C   UNL     1     101.701  26.879  31.351  0.00  0.00    -0.049 C 
ATOM     12  C   UNL     1     100.822  26.946  32.360  0.00  0.00    -0.014 C 
BRANCH  12  13
ATOM     13  C   UNL     1      99.635  27.839  32.310  0.00  0.00    +0.186 C 
ATOM     14  O   UNL     1      99.623  28.884  31.671  0.00  0.00    -0.287 OA
BRANCH  13  15
ATOM     15  C   UNL     1      98.460  27.414  33.119  0.00  0.00    +0.022 A 
ATOM     16  C   UNL     1      97.277  28.157  33.052  0.00  0.00    -0.051 A 
ATOM     17  C   UNL     1      96.174  27.782  33.824  0.00  0.00    -0.061 A 
ATOM     18  C   UNL     1      96.245  26.660  34.650  0.00  0.00    -0.062 A 
ATOM     19  C   UNL     1      97.412  25.900  34.699  0.00  0.00    -0.061 A 
ATOM     20  C   UNL     1      98.516  26.271  33.931  0.00  0.00    -0.051 A 
ENDBRANCH  13  15
ENDBRANCH  12  13
ENDBRANCH   9  11
TORSDOF 3
ENDMDL
MODEL 3
REMARK VINA RESULT:    -8.727      2.135      2.746
REMARK INTER + INTRA:         -10.593
REMARK INTER:                  -9.979
REMARK INTRA:                  -0.615
REMARK UNBOUND:                -0.336
REMARK  Name = 9.sdf
REMARK  3 active torsions:
REMARK  status: ('A' for Active; 'I' for Inactive)
REMARK    1  A    between atoms: C_9  and  C_10
REMARK    2  A    between atoms: C_11  and  C_12
REMARK    3  A    between atoms: C_12  and  C_13
REMARK                            x       y       z     vdW  Elec       q    Type
REMARK                         _______ _______ _______ _____ _____    ______ ____
ROOT
ATOM      1  C   UNL     1     102.576  26.909  34.157  0.00  0.00    -0.061 A 
ATOM      2  C   UNL     1     101.437  27.330  33.480  0.00  0.00    -0.060 A 
ATOM      3  C   UNL     1     101.234  26.993  32.139  0.00  0.00    -0.038 A 
ATOM      4  C   UNL     1     102.209  26.211  31.507  0.00  0.00    +0.047 A 
ATOM      5  C   UNL     1     103.358  25.753  32.157  0.00  0.00    +0.007 A 
ATOM      6  C   UNL     1     103.542  26.129  33.509  0.00  0.00    -0.052 A 
ATOM      7  N   UNL     1     102.268  25.755  30.210  0.00  0.00    -0.360 N 
ATOM      8  C   UNL     1     103.412  25.029  30.011  0.00  0.00    +0.010 A 
ATOM      9  C   UNL     1     104.099  24.980  31.204  0.00  0.00    +0.000 A 
ATOM     10  H   UNL     1     101.584  25.926  29.522  0.00  0.00    +0.000 HD
ENDROOT
BRANCH   9  11
ATOM     11  C   UNL     1     105.334  24.274  31.358  0.00  0.00    -0.049 C 
ATOM     12  C   UNL     1     105.581  23.060  30.847  0.00  0.00    -0.014 C 
BRANCH  12  13
ATOM     13  C   UNL     1     106.870  22.359  31.078  0.00  0.00    +0.186 C 
ATOM     14  O   UNL     1     107.506  21.834  30.172  0.00  0.00    -0.287 OA
BRANCH  13  15
ATOM     15  C   UNL     1     107.337  22.292  32.490  0.00  0.00    +0.022 A 
ATOM     16  C   UNL     1     106.601  21.549  33.420  0.00  0.00    -0.051 A 
ATOM     17  C   UNL     1     107.015  21.497  34.753  0.00  0.00    -0.061 A 
ATOM     18  C   UNL     1     108.168  22.173  35.157  0.00  0.00    -0.062 A 
ATOM     19  C   UNL     1     108.919  22.890  34.229  0.00  0.00    -0.061 A 
ATOM     20  C   UNL     1     108.509  22.946  32.896  0.00  0.00    -0.051 A 
ENDBRANCH  13  15
ENDBRANCH  12  13
ENDBRANCH   9  11
TORSDOF 3
ENDMDL
