REMARK  Name = 0c.sdf
REMARK  2 active torsions:
REMARK  status: ('A' for Active; 'I' for Inactive)
REMARK    1  A    between atoms: N_7  and  C_10
REMARK    2  A    between atoms: C_10  and  C_11
REMARK                            x       y       z     vdW  Elec       q    Type
REMARK                         _______ _______ _______ _____ _____    ______ ____
ROOT
ATOM      1  C   UNL     1       2.107   0.806  -0.037  0.00  0.00    -0.061 A 
ATOM      2  C   UNL     1       2.142  -0.580  -0.137  0.00  0.00    -0.060 A 
ATOM      3  C   UNL     1       0.963  -1.333  -0.145  0.00  0.00    -0.038 A 
ATOM      4  C   UNL     1      -0.263  -0.652  -0.059  0.00  0.00    +0.049 A 
ATOM      5  C   UNL     1      -0.317   0.744   0.014  0.00  0.00    -0.000 A 
ATOM      6  C   UNL     1       0.882   1.480   0.030  0.00  0.00    -0.053 A 
ATOM      7  N   UNL     1      -1.570  -1.106  -0.019  0.00  0.00    -0.342 N 
ATOM      8  C   UNL     1      -2.436  -0.040   0.027  0.00  0.00    +0.006 A 
ATOM      9  C   UNL     1      -1.688   1.114   0.052  0.00  0.00    -0.036 A 
ENDROOT
BRANCH   7  10
ATOM     10  C   UNL     1      -1.996  -2.501   0.048  0.00  0.00    +0.048 C 
BRANCH  10  11
ATOM     11  C   UNL     1      -2.237  -3.073  -1.327  0.00  0.00    -0.028 A 
ATOM     12  C   UNL     1      -1.225  -3.781  -1.992  0.00  0.00    -0.055 A 
ATOM     13  C   UNL     1      -1.404  -4.206  -3.309  0.00  0.00    -0.043 A 
ATOM     14  C   UNL     1      -2.603  -3.939  -3.965  0.00  0.00    +0.041 A 
ATOM     15  C   UNL     1      -3.637  -3.282  -3.304  0.00  0.00    -0.043 A 
ATOM     16  C   UNL     1      -3.457  -2.853  -1.987  0.00  0.00    -0.055 A 
ATOM     17 CL   UNL     1      -2.797  -4.402  -5.611  0.00  0.00    -0.084 Cl
ENDBRANCH  10  11
ENDBRANCH   7  10
TORSDOF 2
