REMARK  Name = 21.sdf
REMARK  5 active torsions:
REMARK  status: ('A' for Active; 'I' for Inactive)
REMARK    1  A    between atoms: C_9  and  C_10
REMARK    2  A    between atoms: C_10  and  O_11
REMARK    3  A    between atoms: O_11  and  C_12
REMARK    4  A    between atoms: C_12  and  C_13
REMARK    5  A    between atoms: C_13  and  C_14
REMARK                            x       y       z     vdW  Elec       q    Type
REMARK                         _______ _______ _______ _____ _____    ______ ____
ROOT
ATOM      1  C   UNL     1      -2.041  -2.587  -0.065  0.00  0.00    +0.075 C 
ENDROOT
BRANCH   1  10
ATOM      2  C   UNL     1      -3.718   1.382  -2.005  0.00  0.00    -0.061 A 
ATOM      3  C   UNL     1      -2.861   2.466  -1.831  0.00  0.00    -0.060 A 
ATOM      4  C   UNL     1      -1.694   2.337  -1.072  0.00  0.00    -0.038 A 
ATOM      5  C   UNL     1      -1.399   1.080  -0.530  0.00  0.00    +0.047 A 
ATOM      6  C   UNL     1      -2.218  -0.036  -0.711  0.00  0.00    +0.005 A 
ATOM      7  C   UNL     1      -3.416   0.136  -1.436  0.00  0.00    -0.052 A 
ATOM      8  N   UNL     1      -0.340   0.674   0.247  0.00  0.00    -0.360 N 
ATOM      9  C   UNL     1      -0.438  -0.661   0.525  0.00  0.00    +0.008 A 
ATOM     10  C   UNL     1      -1.580  -1.158  -0.079  0.00  0.00    +0.003 A 
ATOM     11  H   UNL     1       0.386   1.260   0.559  0.00  0.00    +0.000 HD
ENDBRANCH   1  10
BRANCH   1  12
ATOM     12  O   UNL     1      -0.923  -3.483   0.002  0.00  0.00    -0.367 OA
BRANCH  12  13
ATOM     13  C   UNL     1      -1.306  -4.849  -0.002  0.00  0.00    +0.111 C 
BRANCH  13  14
ATOM     14  C   UNL     1      -0.108  -5.792   0.099  0.00  0.00    +0.189 C 
ATOM     15  O   UNL     1      -0.021  -6.621   1.013  0.00  0.00    -0.290 OA
BRANCH  14  16
ATOM     16  C   UNL     1       0.931  -5.790  -0.973  0.00  0.00    +0.020 A 
ATOM     17  C   UNL     1       0.854  -4.947  -2.087  0.00  0.00    -0.050 A 
ATOM     18  C   UNL     1       1.807  -5.037  -3.106  0.00  0.00    -0.047 A 
ATOM     19  C   UNL     1       2.838  -5.970  -3.013  0.00  0.00    +0.018 A 
ATOM     20  C   UNL     1       2.943  -6.799  -1.898  0.00  0.00    -0.047 A 
ATOM     21  C   UNL     1       1.990  -6.709  -0.881  0.00  0.00    -0.050 A 
ATOM     22 BR   UNL     1       4.076  -6.144  -4.430  0.00  0.00    -0.050 Br
ENDBRANCH  14  16
ENDBRANCH  13  14
ENDBRANCH  12  13
ENDBRANCH   1  12
TORSDOF 5
