REMARK  Name = 17h.sdf
REMARK  8 active torsions:
REMARK  status: ('A' for Active; 'I' for Inactive)
REMARK    1  A    between atoms: N_7  and  C_16
REMARK    2  A    between atoms: C_9  and  C_10
REMARK    3  A    between atoms: N_11  and  N_12
REMARK    4  A    between atoms: C_16  and  C_17
REMARK    5  A    between atoms: C_20  and  O_23
REMARK    6  A    between atoms: C_21  and  O_24
REMARK    7  A    between atoms: O_23  and  C_25
REMARK    8  A    between atoms: O_24  and  C_26
REMARK                            x       y       z     vdW  Elec       q    Type
REMARK                         _______ _______ _______ _____ _____    ______ ____
ROOT
ATOM      1  C   UNL     1      -2.151  -0.896  -0.056  0.00  0.00    -0.061 A 
ATOM      2  C   UNL     1      -2.198   0.488  -0.183  0.00  0.00    -0.060 A 
ATOM      3  C   UNL     1      -1.023   1.247  -0.237  0.00  0.00    -0.038 A 
ATOM      4  C   UNL     1       0.207   0.573  -0.158  0.00  0.00    +0.050 A 
ATOM      5  C   UNL     1       0.279  -0.823  -0.060  0.00  0.00    +0.009 A 
ATOM      6  C   UNL     1      -0.924  -1.562  -0.002  0.00  0.00    -0.052 A 
ATOM      7  N   UNL     1       1.505   1.047  -0.131  0.00  0.00    -0.342 N 
ATOM      8  C   UNL     1       2.381  -0.006  -0.051  0.00  0.00    +0.015 A 
ATOM      9  C   UNL     1       1.661  -1.184  -0.033  0.00  0.00    +0.020 A 
ENDROOT
BRANCH   9  10
ATOM     10  C   UNL     1       2.232  -2.513   0.020  0.00  0.00    +0.055 C 
ATOM     11  N   UNL     1       3.521  -2.635   0.033  0.00  0.00    -0.186 NA
BRANCH  11  12
ATOM     12  N   UNL     1       3.984  -3.924   0.058  0.00  0.00    -0.191 N 
ATOM     13  C   UNL     1       5.330  -4.200   0.054  0.00  0.00    +0.317 C 
ATOM     14  O   UNL     1       5.779  -5.336   0.013  0.00  0.00    -0.251 OA
ATOM     15  N   UNL     1       6.121  -3.100   0.114  0.00  0.00    -0.312 N 
ATOM     16  H   UNL     1       3.340  -4.668   0.078  0.00  0.00    +0.000 HD
ATOM     17  H   UNL     1       5.715  -2.204   0.146  0.00  0.00    +0.000 HD
ATOM     18  H   UNL     1       7.100  -3.198   0.125  0.00  0.00    +0.000 HD
ENDBRANCH  11  12
ENDBRANCH   9  10
BRANCH   7  19
ATOM     19  C   UNL     1       1.909   2.441   0.031  0.00  0.00    +0.048 C 
BRANCH  19  20
ATOM     20  C   UNL     1       2.269   3.153  -1.253  0.00  0.00    -0.024 A 
ATOM     21  C   UNL     1       3.246   2.658  -2.124  0.00  0.00    -0.053 A 
ATOM     22  C   UNL     1       3.707   3.429  -3.197  0.00  0.00    -0.016 A 
ATOM     23  C   UNL     1       3.211   4.717  -3.409  0.00  0.00    +0.162 A 
ATOM     24  C   UNL     1       2.192   5.211  -2.573  0.00  0.00    +0.162 A 
ATOM     25  C   UNL     1       1.729   4.426  -1.508  0.00  0.00    -0.011 A 
BRANCH  23  26
ATOM     26  O   UNL     1       3.660   5.569  -4.388  0.00  0.00    -0.491 OA
ATOM     27  C   UNL     1       4.796   5.166  -5.141  0.00  0.00    +0.079 C 
ENDBRANCH  23  26
BRANCH  24  28
ATOM     28  O   UNL     1       1.746   6.480  -2.850  0.00  0.00    -0.491 OA
ATOM     29  C   UNL     1       0.687   6.998  -2.058  0.00  0.00    +0.079 C 
ENDBRANCH  24  28
ENDBRANCH  19  20
ENDBRANCH   7  19
TORSDOF 6
