REMARK  Name = 4b.sdf
REMARK  4 active torsions:
REMARK  status: ('A' for Active; 'I' for Inactive)
REMARK    1  A    between atoms: N_7  and  C_11
REMARK    2  A    between atoms: C_9  and  C_10
REMARK    3  A    between atoms: C_10  and  O_18
REMARK    4  A    between atoms: C_11  and  C_12
REMARK                            x       y       z     vdW  Elec       q    Type
REMARK                         _______ _______ _______ _____ _____    ______ ____
ROOT
ATOM      1  C   UNL     1      -2.150  -0.921  -0.046  0.00  0.00    -0.061 A 
ATOM      2  C   UNL     1      -2.220   0.456  -0.235  0.00  0.00    -0.060 A 
ATOM      3  C   UNL     1      -1.061   1.238  -0.319  0.00  0.00    -0.038 A 
ATOM      4  C   UNL     1       0.187   0.605  -0.182  0.00  0.00    +0.050 A 
ATOM      5  C   UNL     1       0.275  -0.788  -0.063  0.00  0.00    +0.005 A 
ATOM      6  C   UNL     1      -0.910  -1.553   0.018  0.00  0.00    -0.052 A 
ATOM      7  N   UNL     1       1.483   1.092  -0.114  0.00  0.00    -0.342 N 
ATOM      8  C   UNL     1       2.363   0.036  -0.056  0.00  0.00    +0.011 A 
ATOM      9  C   UNL     1       1.660  -1.143  -0.047  0.00  0.00    +0.003 A 
ENDROOT
BRANCH   9  10
ATOM     10  C   UNL     1       2.208  -2.528   0.021  0.00  0.00    +0.071 C 
BRANCH  10  11
ATOM     11  O   UNL     1       3.479  -2.630  -0.612  0.00  0.00    -0.390 OA
ATOM     12  H   UNL     1       3.391  -2.402  -1.551  0.00  0.00    +0.000 HD
ENDBRANCH  10  11
ENDBRANCH   9  10
BRANCH   7  13
ATOM     13  C   UNL     1       1.899   2.489   0.051  0.00  0.00    +0.048 C 
BRANCH  13  14
ATOM     14  C   UNL     1       2.188   3.156  -1.271  0.00  0.00    -0.025 A 
ATOM     15  C   UNL     1       1.194   3.885  -1.928  0.00  0.00    -0.039 A 
ATOM     16  C   UNL     1       1.453   4.375  -3.199  0.00  0.00    +0.028 A 
ATOM     17  N   UNL     1       2.634   4.228  -3.834  0.00  0.00    -0.263 NA
ATOM     18  C   UNL     1       3.602   3.566  -3.166  0.00  0.00    +0.028 A 
ATOM     19  C   UNL     1       3.433   3.025  -1.899  0.00  0.00    -0.039 A 
ENDBRANCH  13  14
ENDBRANCH   7  13
TORSDOF 4
