REMARK  Name = 14e.sdf
REMARK  5 active torsions:
REMARK  status: ('A' for Active; 'I' for Inactive)
REMARK    1  A    between atoms: C_9  and  C_10
REMARK    2  A    between atoms: C_10  and  O_11
REMARK    3  A    between atoms: O_11  and  C_12
REMARK    4  A    between atoms: C_12  and  C_13
REMARK    5  A    between atoms: C_15  and  C_16
REMARK                            x       y       z     vdW  Elec       q    Type
REMARK                         _______ _______ _______ _____ _____    ______ ____
ROOT
ATOM      1  C   UNL     1      -2.164  -0.684  -0.014  0.00  0.00    -0.061 A 
ATOM      2  C   UNL     1      -2.155   0.703  -0.004  0.00  0.00    -0.060 A 
ATOM      3  C   UNL     1      -0.950   1.411   0.008  0.00  0.00    -0.037 A 
ATOM      4  C   UNL     1       0.266   0.696   0.017  0.00  0.00    +0.057 A 
ATOM      5  C   UNL     1       0.269  -0.703   0.013  0.00  0.00    +0.007 A 
ATOM      6  C   UNL     1      -0.963  -1.394  -0.012  0.00  0.00    -0.052 A 
ATOM      7  N   UNL     1       1.598   1.139   0.023  0.00  0.00    -0.287 N 
ATOM      8  C   UNL     1       2.401   0.006   0.035  0.00  0.00    +0.020 A 
ATOM      9  C   UNL     1       1.625  -1.136   0.035  0.00  0.00    +0.015 A 
ATOM     10  C   UNL     1       2.015   2.494   0.011  0.00  0.00    +0.229 C 
ATOM     11  C   UNL     1       3.488   2.784   0.009  0.00  0.00    +0.015 C 
ATOM     12  O   UNL     1       1.184   3.397   0.002  0.00  0.00    -0.273 OA
ENDROOT
BRANCH   9  13
ATOM     13  C   UNL     1       2.109  -2.553   0.033  0.00  0.00    +0.119 C 
BRANCH  13  14
ATOM     14  O   UNL     1       1.680  -3.250   1.214  0.00  0.00    -0.460 OA
BRANCH  14  15
ATOM     15  C   UNL     1       0.942  -4.369   1.012  0.00  0.00    +0.304 C 
ATOM     16  C   UNL     1       0.525  -4.980   2.316  0.00  0.00    +0.033 C 
ATOM     17  O   UNL     1       0.631  -4.837  -0.076  0.00  0.00    -0.251 OA
ENDBRANCH  14  15
ENDBRANCH  13  14
ENDBRANCH   9  13
TORSDOF 3
