REMARK  Name = 17g.sdf
REMARK  6 active torsions:
REMARK  status: ('A' for Active; 'I' for Inactive)
REMARK    1  A    between atoms: N_7  and  C_16
REMARK    2  A    between atoms: C_9  and  C_10
REMARK    3  A    between atoms: N_11  and  N_12
REMARK    4  A    between atoms: C_16  and  C_17
REMARK    5  A    between atoms: C_20  and  O_23
REMARK    6  A    between atoms: O_23  and  C_24
REMARK                            x       y       z     vdW  Elec       q    Type
REMARK                         _______ _______ _______ _____ _____    ______ ____
ROOT
ATOM      1  C   UNL     1      -2.120  -0.919  -0.059  0.00  0.00    -0.061 A 
ATOM      2  C   UNL     1      -2.179   0.463  -0.194  0.00  0.00    -0.060 A 
ATOM      3  C   UNL     1      -1.013   1.234  -0.219  0.00  0.00    -0.038 A 
ATOM      4  C   UNL     1       0.226   0.578  -0.111  0.00  0.00    +0.050 A 
ATOM      5  C   UNL     1       0.310  -0.817  -0.022  0.00  0.00    +0.009 A 
ATOM      6  C   UNL     1      -0.886  -1.570   0.017  0.00  0.00    -0.052 A 
ATOM      7  N   UNL     1       1.519   1.064  -0.056  0.00  0.00    -0.342 N 
ATOM      8  C   UNL     1       2.405   0.017  -0.014  0.00  0.00    +0.015 A 
ATOM      9  C   UNL     1       1.695  -1.168   0.004  0.00  0.00    +0.020 A 
ENDROOT
BRANCH   9  10
ATOM     10  C   UNL     1       2.267  -2.497   0.037  0.00  0.00    +0.055 C 
ATOM     11  N   UNL     1       3.554  -2.631   0.059  0.00  0.00    -0.186 NA
BRANCH  11  12
ATOM     12  N   UNL     1       4.008  -3.921   0.069  0.00  0.00    -0.191 N 
ATOM     13  C   UNL     1       5.354  -4.209   0.081  0.00  0.00    +0.317 C 
ATOM     14  O   UNL     1       5.794  -5.348   0.128  0.00  0.00    -0.251 OA
ATOM     15  N   UNL     1       6.151  -3.113   0.029  0.00  0.00    -0.312 N 
ATOM     16  H   UNL     1       3.358  -4.661   0.068  0.00  0.00    +0.000 HD
ATOM     17  H   UNL     1       5.750  -2.215  -0.008  0.00  0.00    +0.000 HD
ATOM     18  H   UNL     1       7.130  -3.216   0.028  0.00  0.00    +0.000 HD
ENDBRANCH  11  12
ENDBRANCH   9  10
BRANCH   7  19
ATOM     19  C   UNL     1       1.919   2.465   0.067  0.00  0.00    +0.048 C 
BRANCH  19  20
ATOM     20  C   UNL     1       2.191   3.092  -1.276  0.00  0.00    -0.028 A 
ATOM     21  C   UNL     1       1.183   3.793  -1.945  0.00  0.00    -0.053 A 
ATOM     22  C   UNL     1       1.389   4.257  -3.245  0.00  0.00    -0.020 A 
ATOM     23  C   UNL     1       2.610   4.057  -3.890  0.00  0.00    +0.120 A 
ATOM     24  C   UNL     1       3.643   3.419  -3.209  0.00  0.00    -0.020 A 
ATOM     25  C   UNL     1       3.434   2.937  -1.909  0.00  0.00    -0.053 A 
BRANCH  23  26
ATOM     26  O   UNL     1       2.632   4.468  -5.193  0.00  0.00    -0.495 OA
ATOM     27  C   UNL     1       3.902   4.710  -5.781  0.00  0.00    +0.079 C 
ENDBRANCH  23  26
ENDBRANCH  19  20
ENDBRANCH   7  19
TORSDOF 5
