MODEL 1
REMARK VINA RESULT:    -8.500      0.000      0.000
REMARK INTER + INTRA:         -10.218
REMARK INTER:                  -9.991
REMARK INTRA:                  -0.227
REMARK UNBOUND:                -0.227
REMARK  Name = 1c.sdf
REMARK  3 active torsions:
REMARK  status: ('A' for Active; 'I' for Inactive)
REMARK    1  A    between atoms: N_7  and  C_12
REMARK    2  A    between atoms: C_9  and  C_10
REMARK    3  A    between atoms: C_12  and  C_13
REMARK                            x       y       z     vdW  Elec       q    Type
REMARK                         _______ _______ _______ _____ _____    ______ ____
ROOT
ATOM      1  C   UNL     1      -8.886  12.552 -11.974  0.00  0.00    -0.061 A 
ATOM      2  C   UNL     1     -10.111  13.211 -11.982  0.00  0.00    -0.060 A 
ATOM      3  C   UNL     1     -10.995  13.094 -13.065  0.00  0.00    -0.038 A 
ATOM      4  C   UNL     1     -10.606  12.317 -14.170  0.00  0.00    +0.050 A 
ATOM      5  C   UNL     1      -9.402  11.595 -14.152  0.00  0.00    +0.010 A 
ATOM      6  C   UNL     1      -8.537  11.723 -13.042  0.00  0.00    -0.052 A 
ATOM      7  N   UNL     1     -11.192  12.091 -15.410  0.00  0.00    -0.342 N 
ATOM      8  C   UNL     1     -10.441  11.173 -16.108  0.00  0.00    +0.016 A 
ATOM      9  C   UNL     1      -9.334  10.842 -15.355  0.00  0.00    +0.039 A 
ENDROOT
BRANCH   9  10
ATOM     10  C   UNL     1      -8.299   9.904 -15.756  0.00  0.00    +0.152 C 
ATOM     11  O   UNL     1      -8.218   8.759 -15.333  0.00  0.00    -0.296 OA
ENDBRANCH   9  10
BRANCH   7  12
ATOM     12  C   UNL     1     -12.323  12.803 -16.016  0.00  0.00    +0.048 C 
BRANCH  12  13
ATOM     13  C   UNL     1     -12.903  12.059 -17.194  0.00  0.00    -0.028 A 
ATOM     14  C   UNL     1     -12.880  12.639 -18.469  0.00  0.00    -0.055 A 
ATOM     15  C   UNL     1     -13.600  12.068 -19.520  0.00  0.00    -0.043 A 
ATOM     16  C   UNL     1     -14.314  10.891 -19.311  0.00  0.00    +0.041 A 
ATOM     17  C   UNL     1     -14.251  10.238 -18.083  0.00  0.00    -0.043 A 
ATOM     18  C   UNL     1     -13.543  10.819 -17.025  0.00  0.00    -0.055 A 
ATOM     19 CL   UNL     1     -15.326  10.275 -20.558  0.00  0.00    -0.084 Cl
ENDBRANCH  12  13
ENDBRANCH   7  12
TORSDOF 3
ENDMDL
