MODEL 1
REMARK VINA RESULT:   -11.597      0.000      0.000
REMARK INTER + INTRA:         -16.613
REMARK INTER:                 -15.665
REMARK INTRA:                  -0.948
REMARK UNBOUND:                -0.948
REMARK  Name = 26a.sdf
REMARK  7 active torsions:
REMARK  status: ('A' for Active; 'I' for Inactive)
REMARK    1  A    between atoms: N_7  and  C_10
REMARK    2  A    between atoms: C_9  and  C_18
REMARK    3  A    between atoms: C_10  and  C_11
REMARK    4  A    between atoms: N_19  and  N_20
REMARK    5  A    between atoms: C_21  and  C_23
REMARK    6  A    between atoms: C_26  and  O_29
REMARK    7  A    between atoms: C_28  and  O_30
REMARK                            x       y       z     vdW  Elec       q    Type
REMARK                         _______ _______ _______ _____ _____    ______ ____
ROOT
ATOM      1  C   UNL     1     -10.190  12.891  23.431  0.00  0.00    -0.061 A 
ATOM      2  C   UNL     1      -9.013  12.483  24.046  0.00  0.00    -0.060 A 
ATOM      3  C   UNL     1      -9.009  11.430  24.966  0.00  0.00    -0.038 A 
ATOM      4  C   UNL     1     -10.226  10.785  25.249  0.00  0.00    +0.050 A 
ATOM      5  C   UNL     1     -11.416  11.149  24.604  0.00  0.00    +0.009 A 
ATOM      6  C   UNL     1     -11.393  12.228  23.694  0.00  0.00    -0.052 A 
ATOM      7  N   UNL     1     -10.541   9.770  26.133  0.00  0.00    -0.342 N 
ATOM      8  C   UNL     1     -11.863   9.433  25.999  0.00  0.00    +0.015 A 
ATOM      9  C   UNL     1     -12.441  10.262  25.060  0.00  0.00    +0.020 A 
ENDROOT
BRANCH   9  10
ATOM     10  C   UNL     1     -13.825  10.220  24.638  0.00  0.00    +0.055 C 
ATOM     11  N   UNL     1     -14.750  10.656  25.431  0.00  0.00    -0.187 NA
BRANCH  11  12
ATOM     12  N   UNL     1     -16.018  10.561  24.944  0.00  0.00    -0.203 N 
ATOM     13  C   UNL     1     -16.915   9.648  25.465  0.00  0.00    +0.267 C 
ATOM     14  O   UNL     1     -16.674   8.872  26.392  0.00  0.00    -0.268 OA
ATOM     15  H   UNL     1     -16.300  11.151  24.208  0.00  0.00    +0.000 HD
BRANCH  13  16
ATOM     16  C   UNL     1     -18.273   9.625  24.825  0.00  0.00    +0.080 A 
ATOM     17  C   UNL     1     -18.883   8.371  24.648  0.00  0.00    -0.043 A 
ATOM     18  C   UNL     1     -20.139   8.257  24.047  0.00  0.00    -0.019 A 
ATOM     19  C   UNL     1     -20.794   9.406  23.621  0.00  0.00    +0.120 A 
ATOM     20  C   UNL     1     -20.220  10.660  23.791  0.00  0.00    +0.022 A 
ATOM     21  C   UNL     1     -18.961  10.770  24.390  0.00  0.00    +0.132 A 
BRANCH  19  22
ATOM     22  O   UNL     1     -22.015   9.348  23.019  0.00  0.00    -0.507 OA
ATOM     23  H   UNL     1     -22.756   9.023  23.491  0.00  0.00    +0.000 HD
ENDBRANCH  19  22
BRANCH  21  24
ATOM     24  O   UNL     1     -18.417  12.023  24.537  0.00  0.00    -0.506 OA
ATOM     25  H   UNL     1     -17.490  12.123  24.629  0.00  0.00    +0.000 HD
ENDBRANCH  21  24
ENDBRANCH  13  16
ENDBRANCH  11  12
ENDBRANCH   9  10
BRANCH   7  26
ATOM     26  C   UNL     1      -9.662   9.200  27.151  0.00  0.00    +0.048 C 
BRANCH  26  27
ATOM     27  C   UNL     1     -10.024   7.771  27.466  0.00  0.00    -0.028 A 
ATOM     28  C   UNL     1      -9.793   6.755  26.527  0.00  0.00    -0.056 A 
ATOM     29  C   UNL     1     -10.232   5.452  26.767  0.00  0.00    -0.047 A 
ATOM     30  C   UNL     1     -10.894   5.155  27.955  0.00  0.00    +0.018 A 
ATOM     31  C   UNL     1     -11.085   6.138  28.923  0.00  0.00    -0.047 A 
ATOM     32  C   UNL     1     -10.649   7.443  28.679  0.00  0.00    -0.056 A 
ATOM     33 BR   UNL     1     -11.571   3.413  28.238  0.00  0.00    -0.050 Br
ENDBRANCH  26  27
ENDBRANCH   7  26
TORSDOF 7
ENDMDL
