REMARK VINA RESULT:    -9.385      0.000      0.000
REMARK INTER + INTRA:         -12.322
REMARK INTER:                 -11.580
REMARK INTRA:                  -0.742
REMARK UNBOUND:                -0.742
REMARK  Name = 17c.sdf
REMARK  4 active torsions:
REMARK  status: ('A' for Active; 'I' for Inactive)
REMARK    1  A    between atoms: N_7  and  C_16
REMARK    2  A    between atoms: C_9  and  C_10
REMARK    3  A    between atoms: N_11  and  N_12
REMARK    4  A    between atoms: C_16  and  C_17
REMARK                            x       y       z     vdW  Elec       q    Type
REMARK                         _______ _______ _______ _____ _____    ______ ____
ROOT
ATOM      1  C   UNL     1       0.407   0.601 -20.916  0.00  0.00    -0.061 A 
ATOM      2  C   UNL     1      -0.888   0.801 -20.454  0.00  0.00    -0.060 A 
ATOM      3  C   UNL     1      -1.778  -0.272 -20.304  0.00  0.00    -0.038 A 
ATOM      4  C   UNL     1      -1.345  -1.560 -20.665  0.00  0.00    +0.050 A 
ATOM      5  C   UNL     1      -0.024  -1.790 -21.081  0.00  0.00    +0.009 A 
ATOM      6  C   UNL     1       0.856  -0.690 -21.206  0.00  0.00    -0.052 A 
ATOM      7  N   UNL     1      -2.006  -2.779 -20.727  0.00  0.00    -0.342 N 
ATOM      8  C   UNL     1      -1.111  -3.763 -21.075  0.00  0.00    +0.015 A 
ATOM      9  C   UNL     1       0.129  -3.194 -21.287  0.00  0.00    +0.020 A 
ENDROOT
BRANCH   9  10
ATOM     10  C   UNL     1       1.338  -3.906 -21.652  0.00  0.00    +0.055 C 
ATOM     11  N   UNL     1       1.587  -4.117 -22.904  0.00  0.00    -0.186 NA
BRANCH  11  12
ATOM     12  N   UNL     1       2.726  -4.828 -23.170  0.00  0.00    -0.191 N 
ATOM     13  C   UNL     1       2.677  -6.103 -23.692  0.00  0.00    +0.317 C 
ATOM     14  O   UNL     1       3.671  -6.744 -23.966  0.00  0.00    -0.251 OA
ATOM     15  N   UNL     1       1.421  -6.573 -23.856  0.00  0.00    -0.312 N 
ATOM     16  H   UNL     1       3.602  -4.417 -22.987  0.00  0.00    +0.000 HD
ATOM     17  H   UNL     1       0.649  -6.010 -23.619  0.00  0.00    +0.000 HD
ATOM     18  H   UNL     1       1.278  -7.479 -24.214  0.00  0.00    +0.000 HD
ENDBRANCH  11  12
ENDBRANCH   9  10
BRANCH   7  19
ATOM     19  C   UNL     1      -3.448  -3.021 -20.609  0.00  0.00    +0.048 C 
BRANCH  19  20
ATOM     20  C   UNL     1      -3.925  -2.935 -19.179  0.00  0.00    -0.028 A 
ATOM     21  C   UNL     1      -3.677  -3.990 -18.290  0.00  0.00    -0.055 A 
ATOM     22  C   UNL     1      -4.297  -4.023 -17.039  0.00  0.00    -0.043 A 
ATOM     23  C   UNL     1      -5.135  -2.980 -16.656  0.00  0.00    +0.041 A 
ATOM     24  C   UNL     1      -5.297  -1.868 -17.478  0.00  0.00    -0.043 A 
ATOM     25  C   UNL     1      -4.691  -1.844 -18.737  0.00  0.00    -0.055 A 
ATOM     26 CL   UNL     1      -6.020  -3.094 -15.185  0.00  0.00    -0.084 Cl
ENDBRANCH  19  20
ENDBRANCH   7  19
TORSDOF 4
