REMARK VINA RESULT:    -9.068      2.666      3.928
REMARK INTER + INTRA:         -11.931
REMARK INTER:                 -11.361
REMARK INTRA:                  -0.570
REMARK UNBOUND:                -0.742
REMARK  Name = 17c.sdf
REMARK  4 active torsions:
REMARK  status: ('A' for Active; 'I' for Inactive)
REMARK    1  A    between atoms: N_7  and  C_16
REMARK    2  A    between atoms: C_9  and  C_10
REMARK    3  A    between atoms: N_11  and  N_12
REMARK    4  A    between atoms: C_16  and  C_17
REMARK                            x       y       z     vdW  Elec       q    Type
REMARK                         _______ _______ _______ _____ _____    ______ ____
ROOT
ATOM      1  C   UNL     1       4.698  -2.696 -18.147  0.00  0.00    -0.061 A 
ATOM      2  C   UNL     1       3.662  -2.066 -17.467  0.00  0.00    -0.060 A 
ATOM      3  C   UNL     1       2.474  -1.713 -18.122  0.00  0.00    -0.038 A 
ATOM      4  C   UNL     1       2.361  -1.978 -19.499  0.00  0.00    +0.050 A 
ATOM      5  C   UNL     1       3.373  -2.662 -20.189  0.00  0.00    +0.009 A 
ATOM      6  C   UNL     1       4.553  -3.021 -19.497  0.00  0.00    -0.052 A 
ATOM      7  N   UNL     1       1.379  -1.665 -20.427  0.00  0.00    -0.342 N 
ATOM      8  C   UNL     1       1.711  -2.216 -21.643  0.00  0.00    +0.015 A 
ATOM      9  C   UNL     1       2.929  -2.855 -21.533  0.00  0.00    +0.020 A 
ENDROOT
BRANCH   9  10
ATOM     10  C   UNL     1       3.610  -3.573 -22.592  0.00  0.00    +0.055 C 
ATOM     11  N   UNL     1       3.051  -4.626 -23.095  0.00  0.00    -0.186 NA
BRANCH  11  12
ATOM     12  N   UNL     1       3.768  -5.274 -24.064  0.00  0.00    -0.191 N 
ATOM     13  C   UNL     1       3.647  -6.632 -24.267  0.00  0.00    +0.317 C 
ATOM     14  O   UNL     1       4.249  -7.227 -25.138  0.00  0.00    -0.251 OA
ATOM     15  N   UNL     1       2.807  -7.237 -23.398  0.00  0.00    -0.312 N 
ATOM     16  H   UNL     1       4.385  -4.757 -24.630  0.00  0.00    +0.000 HD
ATOM     17  H   UNL     1       2.343  -6.706 -22.711  0.00  0.00    +0.000 HD
ATOM     18  H   UNL     1       2.658  -8.208 -23.453  0.00  0.00    +0.000 HD
ENDBRANCH  11  12
ENDBRANCH   9  10
BRANCH   7  19
ATOM     19  C   UNL     1       0.233  -0.765 -20.248  0.00  0.00    +0.048 C 
BRANCH  19  20
ATOM     20  C   UNL     1      -1.081  -1.454 -20.525  0.00  0.00    -0.028 A 
ATOM     21  C   UNL     1      -2.193  -0.707 -20.937  0.00  0.00    -0.055 A 
ATOM     22  C   UNL     1      -3.461  -1.291 -20.983  0.00  0.00    -0.043 A 
ATOM     23  C   UNL     1      -3.614  -2.636 -20.658  0.00  0.00    +0.041 A 
ATOM     24  C   UNL     1      -2.503  -3.420 -20.363  0.00  0.00    -0.043 A 
ATOM     25  C   UNL     1      -1.237  -2.831 -20.299  0.00  0.00    -0.055 A 
ATOM     26 CL   UNL     1      -5.193  -3.314 -20.562  0.00  0.00    -0.084 Cl
ENDBRANCH  19  20
ENDBRANCH   7  19
TORSDOF 4
