REMARK VINA RESULT:    -8.073      3.029      4.304
REMARK INTER + INTRA:         -10.112
REMARK INTER:                  -9.784
REMARK INTRA:                  -0.328
REMARK UNBOUND:                -0.623
REMARK  Name = 1c.sdf
REMARK  3 active torsions:
REMARK  status: ('A' for Active; 'I' for Inactive)
REMARK    1  A    between atoms: N_7  and  C_12
REMARK    2  A    between atoms: C_9  and  C_10
REMARK    3  A    between atoms: C_12  and  C_13
REMARK                            x       y       z     vdW  Elec       q    Type
REMARK                         _______ _______ _______ _____ _____    ______ ____
ROOT
ATOM      1  C   UNL     1       4.824  -2.572 -18.153  0.00  0.00    -0.061 A 
ATOM      2  C   UNL     1       3.785  -1.953 -17.465  0.00  0.00    -0.060 A 
ATOM      3  C   UNL     1       2.573  -1.643 -18.100  0.00  0.00    -0.038 A 
ATOM      4  C   UNL     1       2.433  -1.942 -19.467  0.00  0.00    +0.050 A 
ATOM      5  C   UNL     1       3.447  -2.624 -20.160  0.00  0.00    +0.010 A 
ATOM      6  C   UNL     1       4.653  -2.933 -19.492  0.00  0.00    -0.052 A 
ATOM      7  N   UNL     1       1.426  -1.675 -20.387  0.00  0.00    -0.342 N 
ATOM      8  C   UNL     1       1.742  -2.262 -21.591  0.00  0.00    +0.016 A 
ATOM      9  C   UNL     1       2.980  -2.861 -21.481  0.00  0.00    +0.039 A 
ENDROOT
BRANCH   9  10
ATOM     10  C   UNL     1       3.659  -3.580 -22.545  0.00  0.00    +0.152 C 
ATOM     11  O   UNL     1       3.188  -4.554 -23.116  0.00  0.00    -0.296 OA
ENDBRANCH   9  10
BRANCH   7  12
ATOM     12  C   UNL     1       0.275  -0.780 -20.228  0.00  0.00    +0.048 C 
BRANCH  12  13
ATOM     13  C   UNL     1      -1.038  -1.488 -20.465  0.00  0.00    -0.028 A 
ATOM     14  C   UNL     1      -2.160  -0.761 -20.882  0.00  0.00    -0.055 A 
ATOM     15  C   UNL     1      -3.424  -1.354 -20.895  0.00  0.00    -0.043 A 
ATOM     16  C   UNL     1      -3.565  -2.690 -20.529  0.00  0.00    +0.041 A 
ATOM     17  C   UNL     1      -2.444  -3.459 -20.225  0.00  0.00    -0.043 A 
ATOM     18  C   UNL     1      -1.180  -2.860 -20.197  0.00  0.00    -0.055 A 
ATOM     19 CL   UNL     1      -5.136  -3.375 -20.391  0.00  0.00    -0.084 Cl
ENDBRANCH  12  13
ENDBRANCH   7  12
TORSDOF 3
